 160 160   0   0
  0.7548892E+01  0.1245017E-08  0.1245017E-08  0.8997517E-09  0.5000000E-15
   600.000000000000     
  CAR 
 unknown system                          
     14.16187452    -19.32002721  301      1.99700154      1.00000000
    -19.320  0.0000E+00  0.0000E+00
    -19.208  0.0000E+00  0.0000E+00
    -19.097  0.0000E+00  0.0000E+00
    -18.985  0.0000E+00  0.0000E+00
    -18.874  0.0000E+00  0.0000E+00
    -18.762  0.0000E+00  0.0000E+00
    -18.650  0.0000E+00  0.0000E+00
    -18.539  0.0000E+00  0.0000E+00
    -18.427  0.0000E+00  0.0000E+00
    -18.316  0.0000E+00  0.0000E+00
    -18.204  0.1427E-02  0.1592E-03
    -18.092  0.2045E-01  0.2442E-02
    -17.981  0.2691E+00  0.3247E-01
    -17.869  0.3100E+01  0.3784E+00
    -17.758  0.1468E+02  0.2016E+01
    -17.646  0.1791E+02  0.4015E+01
    -17.534  0.2404E+02  0.6698E+01
    -17.423  0.3564E+02  0.1068E+02
    -17.311  0.3806E+02  0.1493E+02
    -17.200  0.4715E+02  0.2020E+02
    -17.088  0.5545E+02  0.2639E+02
    -16.976  0.5770E+02  0.3284E+02
    -16.865  0.6261E+02  0.3984E+02
    -16.753  0.8159E+02  0.4896E+02
    -16.641  0.8563E+02  0.5852E+02
    -16.530  0.8124E+02  0.6760E+02
    -16.418  0.8761E+02  0.7739E+02
    -16.307  0.9725E+02  0.8826E+02
    -16.195  0.9828E+02  0.9925E+02
    -16.083  0.8027E+02  0.1082E+03
    -15.972  0.5974E+02  0.1149E+03
    -15.860  0.5377E+02  0.1209E+03
    -15.749  0.3253E+02  0.1246E+03
    -15.637  0.1638E+02  0.1264E+03
    -15.525  0.1125E+02  0.1277E+03
    -15.414  0.2659E+01  0.1280E+03
    -15.302  0.2367E+00  0.1280E+03
    -15.191  0.0000E+00  0.1280E+03
    -15.079  0.0000E+00  0.1280E+03
    -14.967  0.0000E+00  0.1280E+03
    -14.856  0.0000E+00  0.1280E+03
    -14.744  0.0000E+00  0.1280E+03
    -14.633  0.0000E+00  0.1280E+03
    -14.521  0.0000E+00  0.1280E+03
    -14.409  0.0000E+00  0.1280E+03
    -14.298  0.0000E+00  0.1280E+03
    -14.186  0.0000E+00  0.1280E+03
    -14.075  0.0000E+00  0.1280E+03
    -13.963  0.0000E+00  0.1280E+03
    -13.851  0.0000E+00  0.1280E+03
    -13.740  0.0000E+00  0.1280E+03
    -13.628  0.0000E+00  0.1280E+03
    -13.516  0.0000E+00  0.1280E+03
    -13.405  0.0000E+00  0.1280E+03
    -13.293  0.0000E+00  0.1280E+03
    -13.182  0.0000E+00  0.1280E+03
    -13.070  0.0000E+00  0.1280E+03
    -12.958  0.0000E+00  0.1280E+03
    -12.847  0.0000E+00  0.1280E+03
    -12.735  0.0000E+00  0.1280E+03
    -12.624  0.0000E+00  0.1280E+03
    -12.512  0.0000E+00  0.1280E+03
    -12.400  0.0000E+00  0.1280E+03
    -12.289  0.0000E+00  0.1280E+03
    -12.177  0.0000E+00  0.1280E+03
    -12.066  0.0000E+00  0.1280E+03
    -11.954  0.0000E+00  0.1280E+03
    -11.842  0.0000E+00  0.1280E+03
    -11.731  0.0000E+00  0.1280E+03
    -11.619  0.0000E+00  0.1280E+03
    -11.508  0.0000E+00  0.1280E+03
    -11.396  0.0000E+00  0.1280E+03
    -11.284  0.0000E+00  0.1280E+03
    -11.173  0.0000E+00  0.1280E+03
    -11.061  0.0000E+00  0.1280E+03
    -10.950  0.0000E+00  0.1280E+03
    -10.838  0.0000E+00  0.1280E+03
    -10.726  0.0000E+00  0.1280E+03
    -10.615  0.0000E+00  0.1280E+03
    -10.503  0.0000E+00  0.1280E+03
    -10.392  0.0000E+00  0.1280E+03
    -10.280  0.0000E+00  0.1280E+03
    -10.168  0.0000E+00  0.1280E+03
    -10.057  0.0000E+00  0.1280E+03
     -9.945  0.0000E+00  0.1280E+03
     -9.833  0.0000E+00  0.1280E+03
     -9.722  0.0000E+00  0.1280E+03
     -9.610  0.0000E+00  0.1280E+03
     -9.499  0.0000E+00  0.1280E+03
     -9.387  0.0000E+00  0.1280E+03
     -9.275  0.0000E+00  0.1280E+03
     -9.164  0.0000E+00  0.1280E+03
     -9.052  0.0000E+00  0.1280E+03
     -8.941  0.0000E+00  0.1280E+03
     -8.829  0.0000E+00  0.1280E+03
     -8.717  0.0000E+00  0.1280E+03
     -8.606  0.0000E+00  0.1280E+03
     -8.494  0.0000E+00  0.1280E+03
     -8.383  0.0000E+00  0.1280E+03
     -8.271  0.0000E+00  0.1280E+03
     -8.159  0.0000E+00  0.1280E+03
     -8.048  0.0000E+00  0.1280E+03
     -7.936  0.0000E+00  0.1280E+03
     -7.825  0.0000E+00  0.1280E+03
     -7.713  0.0000E+00  0.1280E+03
     -7.601  0.0000E+00  0.1280E+03
     -7.490  0.0000E+00  0.1280E+03
     -7.378  0.0000E+00  0.1280E+03
     -7.267  0.0000E+00  0.1280E+03
     -7.155  0.0000E+00  0.1280E+03
     -7.043  0.0000E+00  0.1280E+03
     -6.932  0.0000E+00  0.1280E+03
     -6.820  0.0000E+00  0.1280E+03
     -6.709  0.0000E+00  0.1280E+03
     -6.597  0.0000E+00  0.1280E+03
     -6.485  0.4790E-03  0.1280E+03
     -6.374  0.6642E-02  0.1280E+03
     -6.262  0.8794E-01  0.1280E+03
     -6.150  0.1119E+01  0.1281E+03
     -6.039  0.8703E+01  0.1291E+03
     -5.927  0.1750E+02  0.1311E+03
     -5.816  0.1493E+02  0.1327E+03
     -5.704  0.1187E+02  0.1341E+03
     -5.592  0.1511E+02  0.1357E+03
     -5.481  0.2652E+02  0.1387E+03
     -5.369  0.2685E+02  0.1417E+03
     -5.258  0.3882E+02  0.1460E+03
     -5.146  0.5354E+02  0.1520E+03
     -5.034  0.5888E+02  0.1586E+03
     -4.923  0.6106E+02  0.1654E+03
     -4.811  0.6577E+02  0.1728E+03
     -4.700  0.5974E+02  0.1795E+03
     -4.588  0.5459E+02  0.1856E+03
     -4.476  0.5619E+02  0.1918E+03
     -4.365  0.5298E+02  0.1978E+03
     -4.253  0.5253E+02  0.2036E+03
     -4.142  0.5310E+02  0.2096E+03
     -4.030  0.4690E+02  0.2148E+03
     -3.918  0.4360E+02  0.2197E+03
     -3.807  0.4615E+02  0.2248E+03
     -3.695  0.5029E+02  0.2305E+03
     -3.584  0.4460E+02  0.2354E+03
     -3.472  0.3135E+02  0.2389E+03
     -3.360  0.2636E+02  0.2419E+03
     -3.249  0.3566E+02  0.2459E+03
     -3.137  0.2870E+02  0.2491E+03
     -3.026  0.2141E+02  0.2515E+03
     -2.914  0.1849E+02  0.2536E+03
     -2.802  0.1654E+02  0.2554E+03
     -2.691  0.4663E+01  0.2559E+03
     -2.579  0.4593E+00  0.2560E+03
     -2.467  0.8426E+00  0.2561E+03
     -2.356  0.8291E+01  0.2570E+03
     -2.244  0.2634E+02  0.2600E+03
     -2.133  0.3095E+02  0.2634E+03
     -2.021  0.3270E+02  0.2671E+03
     -1.909  0.3467E+02  0.2709E+03
     -1.798  0.3620E+02  0.2750E+03
     -1.686  0.4724E+02  0.2803E+03
     -1.575  0.5601E+02  0.2865E+03
     -1.463  0.6108E+02  0.2933E+03
     -1.351  0.6955E+02  0.3011E+03
     -1.240  0.8219E+02  0.3103E+03
     -1.128  0.8656E+02  0.3200E+03
     -1.017  0.8636E+02  0.3296E+03
     -0.905  0.9192E+02  0.3399E+03
     -0.793  0.9251E+02  0.3502E+03
     -0.682  0.9564E+02  0.3609E+03
     -0.570  0.9859E+02  0.3720E+03
     -0.459  0.9949E+02  0.3831E+03
     -0.347  0.1023E+03  0.3945E+03
     -0.235  0.1109E+03  0.4069E+03
     -0.124  0.1102E+03  0.4192E+03
     -0.012  0.1008E+03  0.4305E+03
      0.099  0.1063E+03  0.4424E+03
      0.211  0.1060E+03  0.4542E+03
      0.323  0.1077E+03  0.4662E+03
      0.434  0.1021E+03  0.4777E+03
      0.546  0.9502E+02  0.4883E+03
      0.658  0.8235E+02  0.4975E+03
      0.769  0.6458E+02  0.5047E+03
      0.881  0.3875E+02  0.5091E+03
      0.992  0.2123E+02  0.5114E+03
      1.104  0.4425E+01  0.5120E+03
      1.216  0.3813E+00  0.5120E+03
      1.327  0.0000E+00  0.5120E+03
      1.439  0.0000E+00  0.5120E+03
      1.550  0.0000E+00  0.5120E+03
      1.662  0.0000E+00  0.5120E+03
      1.774  0.0000E+00  0.5120E+03
      1.885  0.0000E+00  0.5120E+03
      1.997  0.0000E+00  0.5120E+03
      2.108  0.0000E+00  0.5120E+03
      2.220  0.0000E+00  0.5120E+03
      2.332  0.0000E+00  0.5120E+03
      2.443  0.0000E+00  0.5120E+03
      2.555  0.0000E+00  0.5120E+03
      2.666  0.0000E+00  0.5120E+03
      2.778  0.0000E+00  0.5120E+03
      2.890  0.0000E+00  0.5120E+03
      3.001  0.0000E+00  0.5120E+03
      3.113  0.0000E+00  0.5120E+03
      3.224  0.0000E+00  0.5120E+03
      3.336  0.0000E+00  0.5120E+03
      3.448  0.0000E+00  0.5120E+03
      3.559  0.0000E+00  0.5120E+03
      3.671  0.0000E+00  0.5120E+03
      3.782  0.0000E+00  0.5120E+03
      3.894  0.0000E+00  0.5120E+03
      4.006  0.0000E+00  0.5120E+03
      4.117  0.0000E+00  0.5120E+03
      4.229  0.0000E+00  0.5120E+03
      4.341  0.0000E+00  0.5120E+03
      4.452  0.0000E+00  0.5120E+03
      4.564  0.0000E+00  0.5120E+03
      4.675  0.0000E+00  0.5120E+03
      4.787  0.0000E+00  0.5120E+03
      4.899  0.0000E+00  0.5120E+03
      5.010  0.0000E+00  0.5120E+03
      5.122  0.0000E+00  0.5120E+03
      5.233  0.0000E+00  0.5120E+03
      5.345  0.0000E+00  0.5120E+03
      5.457  0.0000E+00  0.5120E+03
      5.568  0.0000E+00  0.5120E+03
      5.680  0.0000E+00  0.5120E+03
      5.791  0.4041E-02  0.5120E+03
      5.903  0.4997E-01  0.5120E+03
      6.015  0.6438E+00  0.5121E+03
      6.126  0.5609E+01  0.5127E+03
      6.238  0.9451E+01  0.5138E+03
      6.349  0.2008E+01  0.5140E+03
      6.461  0.5058E+00  0.5140E+03
      6.573  0.3856E+01  0.5145E+03
      6.684  0.1730E+02  0.5164E+03
      6.796  0.1242E+02  0.5178E+03
      6.907  0.1753E+01  0.5180E+03
      7.019  0.1643E+00  0.5180E+03
      7.131  0.7276E+00  0.5181E+03
      7.242  0.6062E+01  0.5188E+03
      7.354  0.9404E+01  0.5198E+03
      7.465  0.4788E+01  0.5203E+03
      7.577  0.1712E+02  0.5223E+03
      7.689  0.1803E+02  0.5243E+03
      7.800  0.1819E+02  0.5263E+03
      7.912  0.1283E+02  0.5277E+03
      8.024  0.2407E+01  0.5280E+03
      8.135  0.3292E+01  0.5284E+03
      8.247  0.1724E+02  0.5303E+03
      8.358  0.3364E+02  0.5341E+03
      8.470  0.2714E+02  0.5371E+03
      8.582  0.1500E+02  0.5388E+03
      8.693  0.2536E+02  0.5416E+03
      8.805  0.2554E+02  0.5445E+03
      8.916  0.2168E+02  0.5469E+03
      9.028  0.2866E+02  0.5501E+03
      9.140  0.2789E+02  0.5532E+03
      9.251  0.2215E+02  0.5557E+03
      9.363  0.1758E+02  0.5577E+03
      9.474  0.2482E+02  0.5604E+03
      9.586  0.3308E+02  0.5641E+03
      9.698  0.3552E+02  0.5681E+03
      9.809  0.2786E+02  0.5712E+03
      9.921  0.2584E+02  0.5741E+03
     10.032  0.3014E+02  0.5775E+03
     10.144  0.3821E+02  0.5817E+03
     10.256  0.4539E+02  0.5868E+03
     10.367  0.4042E+02  0.5913E+03
     10.479  0.4418E+02  0.5963E+03
     10.590  0.3901E+02  0.6006E+03
     10.702  0.3712E+02  0.6048E+03
     10.814  0.4317E+02  0.6096E+03
     10.925  0.4515E+02  0.6147E+03
     11.037  0.3931E+02  0.6191E+03
     11.149  0.4341E+02  0.6239E+03
     11.260  0.4627E+02  0.6291E+03
     11.372  0.4343E+02  0.6339E+03
     11.483  0.5673E+02  0.6403E+03
     11.595  0.5184E+02  0.6461E+03
     11.707  0.2919E+02  0.6493E+03
     11.818  0.2750E+02  0.6524E+03
     11.930  0.3461E+02  0.6563E+03
     12.041  0.3490E+02  0.6602E+03
     12.153  0.3510E+02  0.6641E+03
     12.265  0.3824E+02  0.6684E+03
     12.376  0.3732E+02  0.6725E+03
     12.488  0.2246E+02  0.6750E+03
     12.599  0.2077E+02  0.6774E+03
     12.711  0.1917E+02  0.6795E+03
     12.823  0.3961E+01  0.6800E+03
     12.934  0.3342E+00  0.6800E+03
     13.046  0.0000E+00  0.6800E+03
     13.157  0.0000E+00  0.6800E+03
     13.269  0.0000E+00  0.6800E+03
     13.381  0.0000E+00  0.6800E+03
     13.492  0.0000E+00  0.6800E+03
     13.604  0.0000E+00  0.6800E+03
     13.715  0.0000E+00  0.6800E+03
     13.827  0.0000E+00  0.6800E+03
     13.939  0.0000E+00  0.6800E+03
     14.050  0.0000E+00  0.6800E+03
     14.162  0.0000E+00  0.6800E+03
     14.22448871    -19.32377105  301      2.37087947      1.00000000
    -19.324  0.0000E+00  0.0000E+00
    -19.212  0.0000E+00  0.0000E+00
    -19.100  0.0000E+00  0.0000E+00
    -18.988  0.0000E+00  0.0000E+00
    -18.876  0.0000E+00  0.0000E+00
    -18.765  0.0000E+00  0.0000E+00
    -18.653  0.0000E+00  0.0000E+00
    -18.541  0.0000E+00  0.0000E+00
    -18.429  0.0000E+00  0.0000E+00
    -18.317  0.0000E+00  0.0000E+00
    -18.205  0.1398E-02  0.1563E-03
    -18.094  0.2089E-01  0.2493E-02
    -17.982  0.2773E+00  0.3350E-01
    -17.870  0.3221E+01  0.3936E+00
    -17.758  0.1566E+02  0.2145E+01
    -17.646  0.1928E+02  0.4302E+01
    -17.535  0.2098E+02  0.6648E+01
    -17.423  0.3382E+02  0.1043E+02
    -17.311  0.3250E+02  0.1407E+02
    -17.199  0.4270E+02  0.1885E+02
    -17.087  0.5466E+02  0.2497E+02
    -16.975  0.5623E+02  0.3126E+02
    -16.864  0.5465E+02  0.3738E+02
    -16.752  0.5900E+02  0.4398E+02
    -16.640  0.6299E+02  0.5104E+02
    -16.528  0.7222E+02  0.5912E+02
    -16.416  0.8645E+02  0.6880E+02
    -16.304  0.8430E+02  0.7823E+02
    -16.193  0.8821E+02  0.8811E+02
    -16.081  0.9168E+02  0.9838E+02
    -15.969  0.5931E+02  0.1050E+03
    -15.857  0.3889E+02  0.1094E+03
    -15.745  0.4474E+02  0.1144E+03
    -15.633  0.4449E+02  0.1194E+03
    -15.522  0.2466E+02  0.1222E+03
    -15.410  0.2246E+02  0.1247E+03
    -15.298  0.1686E+02  0.1266E+03
    -15.186  0.1061E+02  0.1278E+03
    -15.074  0.1882E+01  0.1280E+03
    -14.962  0.1577E+00  0.1280E+03
    -14.851  0.0000E+00  0.1280E+03
    -14.739  0.0000E+00  0.1280E+03
    -14.627  0.0000E+00  0.1280E+03
    -14.515  0.0000E+00  0.1280E+03
    -14.403  0.0000E+00  0.1280E+03
    -14.292  0.0000E+00  0.1280E+03
    -14.180  0.0000E+00  0.1280E+03
    -14.068  0.0000E+00  0.1280E+03
    -13.956  0.0000E+00  0.1280E+03
    -13.844  0.0000E+00  0.1280E+03
    -13.732  0.0000E+00  0.1280E+03
    -13.621  0.0000E+00  0.1280E+03
    -13.509  0.0000E+00  0.1280E+03
    -13.397  0.0000E+00  0.1280E+03
    -13.285  0.0000E+00  0.1280E+03
    -13.173  0.0000E+00  0.1280E+03
    -13.061  0.0000E+00  0.1280E+03
    -12.950  0.0000E+00  0.1280E+03
    -12.838  0.0000E+00  0.1280E+03
    -12.726  0.0000E+00  0.1280E+03
    -12.614  0.0000E+00  0.1280E+03
    -12.502  0.0000E+00  0.1280E+03
    -12.390  0.0000E+00  0.1280E+03
    -12.279  0.0000E+00  0.1280E+03
    -12.167  0.0000E+00  0.1280E+03
    -12.055  0.0000E+00  0.1280E+03
    -11.943  0.0000E+00  0.1280E+03
    -11.831  0.0000E+00  0.1280E+03
    -11.719  0.0000E+00  0.1280E+03
    -11.608  0.0000E+00  0.1280E+03
    -11.496  0.0000E+00  0.1280E+03
    -11.384  0.0000E+00  0.1280E+03
    -11.272  0.0000E+00  0.1280E+03
    -11.160  0.0000E+00  0.1280E+03
    -11.049  0.0000E+00  0.1280E+03
    -10.937  0.0000E+00  0.1280E+03
    -10.825  0.0000E+00  0.1280E+03
    -10.713  0.0000E+00  0.1280E+03
    -10.601  0.0000E+00  0.1280E+03
    -10.489  0.0000E+00  0.1280E+03
    -10.378  0.0000E+00  0.1280E+03
    -10.266  0.0000E+00  0.1280E+03
    -10.154  0.0000E+00  0.1280E+03
    -10.042  0.0000E+00  0.1280E+03
     -9.930  0.0000E+00  0.1280E+03
     -9.818  0.0000E+00  0.1280E+03
     -9.707  0.0000E+00  0.1280E+03
     -9.595  0.0000E+00  0.1280E+03
     -9.483  0.0000E+00  0.1280E+03
     -9.371  0.0000E+00  0.1280E+03
     -9.259  0.0000E+00  0.1280E+03
     -9.147  0.0000E+00  0.1280E+03
     -9.036  0.0000E+00  0.1280E+03
     -8.924  0.0000E+00  0.1280E+03
     -8.812  0.0000E+00  0.1280E+03
     -8.700  0.0000E+00  0.1280E+03
     -8.588  0.0000E+00  0.1280E+03
     -8.477  0.0000E+00  0.1280E+03
     -8.365  0.0000E+00  0.1280E+03
     -8.253  0.0000E+00  0.1280E+03
     -8.141  0.0000E+00  0.1280E+03
     -8.029  0.0000E+00  0.1280E+03
     -7.917  0.0000E+00  0.1280E+03
     -7.806  0.0000E+00  0.1280E+03
     -7.694  0.0000E+00  0.1280E+03
     -7.582  0.0000E+00  0.1280E+03
     -7.470  0.0000E+00  0.1280E+03
     -7.358  0.0000E+00  0.1280E+03
     -7.246  0.0000E+00  0.1280E+03
     -7.135  0.0000E+00  0.1280E+03
     -7.023  0.0000E+00  0.1280E+03
     -6.911  0.0000E+00  0.1280E+03
     -6.799  0.0000E+00  0.1280E+03
     -6.687  0.0000E+00  0.1280E+03
     -6.575  0.0000E+00  0.1280E+03
     -6.464  0.0000E+00  0.1280E+03
     -6.352  0.3401E-02  0.1280E+03
     -6.240  0.4561E-01  0.1280E+03
     -6.128  0.5942E+00  0.1281E+03
     -6.016  0.5645E+01  0.1287E+03
     -5.904  0.1510E+02  0.1304E+03
     -5.793  0.1603E+02  0.1322E+03
     -5.681  0.1705E+02  0.1341E+03
     -5.569  0.1799E+02  0.1361E+03
     -5.457  0.2305E+02  0.1387E+03
     -5.345  0.3361E+02  0.1424E+03
     -5.234  0.4329E+02  0.1473E+03
     -5.122  0.5183E+02  0.1531E+03
     -5.010  0.5750E+02  0.1595E+03
     -4.898  0.5075E+02  0.1652E+03
     -4.786  0.5289E+02  0.1711E+03
     -4.674  0.5364E+02  0.1771E+03
     -4.563  0.4978E+02  0.1827E+03
     -4.451  0.5983E+02  0.1894E+03
     -4.339  0.5394E+02  0.1955E+03
     -4.227  0.4909E+02  0.2010E+03
     -4.115  0.5644E+02  0.2073E+03
     -4.003  0.6454E+02  0.2145E+03
     -3.892  0.5403E+02  0.2205E+03
     -3.780  0.4454E+02  0.2255E+03
     -3.668  0.4270E+02  0.2303E+03
     -3.556  0.3909E+02  0.2347E+03
     -3.444  0.3551E+02  0.2387E+03
     -3.332  0.3236E+02  0.2423E+03
     -3.221  0.3638E+02  0.2464E+03
     -3.109  0.3049E+02  0.2498E+03
     -2.997  0.1608E+02  0.2516E+03
     -2.885  0.8065E+01  0.2525E+03
     -2.773  0.1294E+02  0.2540E+03
     -2.661  0.1285E+02  0.2554E+03
     -2.550  0.5355E+01  0.2560E+03
     -2.438  0.4856E+01  0.2565E+03
     -2.326  0.1427E+02  0.2581E+03
     -2.214  0.1661E+02  0.2600E+03
     -2.102  0.2105E+02  0.2623E+03
     -1.991  0.3044E+02  0.2658E+03
     -1.879  0.4132E+02  0.2704E+03
     -1.767  0.4255E+02  0.2751E+03
     -1.655  0.4972E+02  0.2807E+03
     -1.543  0.5399E+02  0.2868E+03
     -1.431  0.5910E+02  0.2934E+03
     -1.320  0.6977E+02  0.3012E+03
     -1.208  0.8209E+02  0.3104E+03
     -1.096  0.8457E+02  0.3198E+03
     -0.984  0.8854E+02  0.3298E+03
     -0.872  0.8728E+02  0.3395E+03
     -0.760  0.8296E+02  0.3488E+03
     -0.649  0.8857E+02  0.3587E+03
     -0.537  0.9054E+02  0.3689E+03
     -0.425  0.1004E+03  0.3801E+03
     -0.313  0.1012E+03  0.3914E+03
     -0.201  0.9917E+02  0.4025E+03
     -0.089  0.9803E+02  0.4135E+03
      0.022  0.1045E+03  0.4252E+03
      0.134  0.1084E+03  0.4374E+03
      0.246  0.1073E+03  0.4494E+03
      0.358  0.1048E+03  0.4611E+03
      0.470  0.9955E+02  0.4723E+03
      0.582  0.8491E+02  0.4818E+03
      0.693  0.7097E+02  0.4897E+03
      0.805  0.5990E+02  0.4965E+03
      0.917  0.5100E+02  0.5022E+03
      1.029  0.3363E+02  0.5060E+03
      1.141  0.2381E+02  0.5086E+03
      1.252  0.2055E+02  0.5109E+03
      1.364  0.8441E+01  0.5119E+03
      1.476  0.9825E+00  0.5120E+03
      1.588  0.0000E+00  0.5120E+03
      1.700  0.0000E+00  0.5120E+03
      1.812  0.0000E+00  0.5120E+03
      1.923  0.0000E+00  0.5120E+03
      2.035  0.0000E+00  0.5120E+03
      2.147  0.0000E+00  0.5120E+03
      2.259  0.0000E+00  0.5120E+03
      2.371  0.0000E+00  0.5120E+03
      2.483  0.0000E+00  0.5120E+03
      2.594  0.0000E+00  0.5120E+03
      2.706  0.0000E+00  0.5120E+03
      2.818  0.0000E+00  0.5120E+03
      2.930  0.0000E+00  0.5120E+03
      3.042  0.0000E+00  0.5120E+03
      3.154  0.0000E+00  0.5120E+03
      3.265  0.0000E+00  0.5120E+03
      3.377  0.0000E+00  0.5120E+03
      3.489  0.0000E+00  0.5120E+03
      3.601  0.0000E+00  0.5120E+03
      3.713  0.0000E+00  0.5120E+03
      3.825  0.0000E+00  0.5120E+03
      3.936  0.0000E+00  0.5120E+03
      4.048  0.0000E+00  0.5120E+03
      4.160  0.0000E+00  0.5120E+03
      4.272  0.0000E+00  0.5120E+03
      4.384  0.0000E+00  0.5120E+03
      4.495  0.0000E+00  0.5120E+03
      4.607  0.0000E+00  0.5120E+03
      4.719  0.0000E+00  0.5120E+03
      4.831  0.0000E+00  0.5120E+03
      4.943  0.0000E+00  0.5120E+03
      5.055  0.0000E+00  0.5120E+03
      5.166  0.0000E+00  0.5120E+03
      5.278  0.0000E+00  0.5120E+03
      5.390  0.0000E+00  0.5120E+03
      5.502  0.0000E+00  0.5120E+03
      5.614  0.0000E+00  0.5120E+03
      5.726  0.5328E-02  0.5120E+03
      5.837  0.6618E-01  0.5120E+03
      5.949  0.8461E+00  0.5121E+03
      6.061  0.6621E+01  0.5128E+03
      6.173  0.8694E+01  0.5138E+03
      6.285  0.1531E+01  0.5140E+03
      6.397  0.2898E+00  0.5140E+03
      6.508  0.1974E+01  0.5142E+03
      6.620  0.1013E+02  0.5154E+03
      6.732  0.1194E+02  0.5167E+03
      6.844  0.9668E+01  0.5178E+03
      6.956  0.1718E+01  0.5180E+03
      7.068  0.6161E+00  0.5181E+03
      7.179  0.4602E+01  0.5186E+03
      7.291  0.1001E+02  0.5197E+03
      7.403  0.3011E+01  0.5200E+03
      7.515  0.4826E+01  0.5206E+03
      7.627  0.1334E+02  0.5221E+03
      7.738  0.1603E+02  0.5239E+03
      7.850  0.2170E+02  0.5263E+03
      7.962  0.1380E+02  0.5278E+03
      8.074  0.4718E+01  0.5284E+03
      8.186  0.1176E+02  0.5297E+03
      8.298  0.1518E+02  0.5314E+03
      8.409  0.2146E+02  0.5338E+03
      8.521  0.1932E+02  0.5359E+03
      8.633  0.2198E+02  0.5384E+03
      8.745  0.2629E+02  0.5413E+03
      8.857  0.2174E+02  0.5438E+03
      8.969  0.2868E+02  0.5470E+03
      9.080  0.3668E+02  0.5511E+03
      9.192  0.3423E+02  0.5549E+03
      9.304  0.2617E+02  0.5579E+03
      9.416  0.2407E+02  0.5606E+03
      9.528  0.3165E+02  0.5641E+03
      9.640  0.3590E+02  0.5681E+03
      9.751  0.3359E+02  0.5719E+03
      9.863  0.3504E+02  0.5758E+03
      9.975  0.3596E+02  0.5798E+03
     10.087  0.3665E+02  0.5840E+03
     10.199  0.3505E+02  0.5879E+03
     10.311  0.2861E+02  0.5911E+03
     10.422  0.3506E+02  0.5950E+03
     10.534  0.3963E+02  0.5995E+03
     10.646  0.4277E+02  0.6042E+03
     10.758  0.4589E+02  0.6094E+03
     10.870  0.4290E+02  0.6142E+03
     10.981  0.4376E+02  0.6191E+03
     11.093  0.3820E+02  0.6234E+03
     11.205  0.4112E+02  0.6280E+03
     11.317  0.4416E+02  0.6329E+03
     11.429  0.3546E+02  0.6369E+03
     11.541  0.4167E+02  0.6415E+03
     11.652  0.3972E+02  0.6460E+03
     11.764  0.4152E+02  0.6506E+03
     11.876  0.3613E+02  0.6547E+03
     11.988  0.3302E+02  0.6584E+03
     12.100  0.2838E+02  0.6616E+03
     12.212  0.3464E+02  0.6654E+03
     12.323  0.3613E+02  0.6695E+03
     12.435  0.2589E+02  0.6724E+03
     12.547  0.2302E+02  0.6750E+03
     12.659  0.2294E+02  0.6775E+03
     12.771  0.1798E+02  0.6796E+03
     12.883  0.3574E+01  0.6800E+03
     12.994  0.2313E+00  0.6800E+03
     13.106  0.0000E+00  0.6800E+03
     13.218  0.0000E+00  0.6800E+03
     13.330  0.0000E+00  0.6800E+03
     13.442  0.0000E+00  0.6800E+03
     13.554  0.0000E+00  0.6800E+03
     13.665  0.0000E+00  0.6800E+03
     13.777  0.0000E+00  0.6800E+03
     13.889  0.0000E+00  0.6800E+03
     14.001  0.0000E+00  0.6800E+03
     14.113  0.0000E+00  0.6800E+03
     14.224  0.0000E+00  0.6800E+03
     14.29548547    -19.65095348  301      2.30129804      1.00000000
    -19.651  0.0000E+00  0.0000E+00
    -19.538  0.0000E+00  0.0000E+00
    -19.425  0.0000E+00  0.0000E+00
    -19.311  0.0000E+00  0.0000E+00
    -19.198  0.0000E+00  0.0000E+00
    -19.085  0.0000E+00  0.0000E+00
    -18.972  0.0000E+00  0.0000E+00
    -18.859  0.0000E+00  0.0000E+00
    -18.746  0.0000E+00  0.0000E+00
    -18.633  0.0000E+00  0.0000E+00
    -18.519  0.1235E-02  0.1397E-03
    -18.406  0.1790E-01  0.2165E-02
    -18.293  0.2437E+00  0.2974E-01
    -18.180  0.2904E+01  0.3584E+00
    -18.067  0.1373E+02  0.1912E+01
    -17.954  0.1491E+02  0.3599E+01
    -17.840  0.7142E+01  0.4407E+01
    -17.727  0.1690E+02  0.6323E+01
    -17.614  0.1886E+02  0.8460E+01
    -17.501  0.2167E+02  0.1091E+02
    -17.388  0.3570E+02  0.1496E+02
    -17.275  0.4385E+02  0.1992E+02
    -17.162  0.5589E+02  0.2624E+02
    -17.048  0.6212E+02  0.3328E+02
    -16.935  0.6381E+02  0.4051E+02
    -16.822  0.5955E+02  0.4726E+02
    -16.709  0.5922E+02  0.5397E+02
    -16.596  0.7019E+02  0.6193E+02
    -16.483  0.7266E+02  0.7016E+02
    -16.369  0.6825E+02  0.7790E+02
    -16.256  0.7068E+02  0.8591E+02
    -16.143  0.7033E+02  0.9389E+02
    -16.030  0.6600E+02  0.1014E+03
    -15.917  0.4718E+02  0.1067E+03
    -15.804  0.4416E+02  0.1117E+03
    -15.691  0.2744E+02  0.1148E+03
    -15.577  0.3290E+02  0.1186E+03
    -15.464  0.3687E+02  0.1228E+03
    -15.351  0.2523E+02  0.1256E+03
    -15.238  0.1421E+02  0.1272E+03
    -15.125  0.6069E+01  0.1279E+03
    -15.012  0.6368E+00  0.1280E+03
    -14.898  0.0000E+00  0.1280E+03
    -14.785  0.0000E+00  0.1280E+03
    -14.672  0.0000E+00  0.1280E+03
    -14.559  0.0000E+00  0.1280E+03
    -14.446  0.0000E+00  0.1280E+03
    -14.333  0.0000E+00  0.1280E+03
    -14.220  0.0000E+00  0.1280E+03
    -14.106  0.0000E+00  0.1280E+03
    -13.993  0.0000E+00  0.1280E+03
    -13.880  0.0000E+00  0.1280E+03
    -13.767  0.0000E+00  0.1280E+03
    -13.654  0.0000E+00  0.1280E+03
    -13.541  0.0000E+00  0.1280E+03
    -13.427  0.0000E+00  0.1280E+03
    -13.314  0.0000E+00  0.1280E+03
    -13.201  0.0000E+00  0.1280E+03
    -13.088  0.0000E+00  0.1280E+03
    -12.975  0.0000E+00  0.1280E+03
    -12.862  0.0000E+00  0.1280E+03
    -12.749  0.0000E+00  0.1280E+03
    -12.635  0.0000E+00  0.1280E+03
    -12.522  0.0000E+00  0.1280E+03
    -12.409  0.0000E+00  0.1280E+03
    -12.296  0.0000E+00  0.1280E+03
    -12.183  0.0000E+00  0.1280E+03
    -12.070  0.0000E+00  0.1280E+03
    -11.956  0.0000E+00  0.1280E+03
    -11.843  0.0000E+00  0.1280E+03
    -11.730  0.0000E+00  0.1280E+03
    -11.617  0.0000E+00  0.1280E+03
    -11.504  0.0000E+00  0.1280E+03
    -11.391  0.0000E+00  0.1280E+03
    -11.277  0.0000E+00  0.1280E+03
    -11.164  0.0000E+00  0.1280E+03
    -11.051  0.0000E+00  0.1280E+03
    -10.938  0.0000E+00  0.1280E+03
    -10.825  0.0000E+00  0.1280E+03
    -10.712  0.0000E+00  0.1280E+03
    -10.599  0.0000E+00  0.1280E+03
    -10.485  0.0000E+00  0.1280E+03
    -10.372  0.0000E+00  0.1280E+03
    -10.259  0.0000E+00  0.1280E+03
    -10.146  0.0000E+00  0.1280E+03
    -10.033  0.0000E+00  0.1280E+03
     -9.920  0.0000E+00  0.1280E+03
     -9.806  0.0000E+00  0.1280E+03
     -9.693  0.0000E+00  0.1280E+03
     -9.580  0.0000E+00  0.1280E+03
     -9.467  0.0000E+00  0.1280E+03
     -9.354  0.0000E+00  0.1280E+03
     -9.241  0.0000E+00  0.1280E+03
     -9.128  0.0000E+00  0.1280E+03
     -9.014  0.0000E+00  0.1280E+03
     -8.901  0.0000E+00  0.1280E+03
     -8.788  0.0000E+00  0.1280E+03
     -8.675  0.0000E+00  0.1280E+03
     -8.562  0.0000E+00  0.1280E+03
     -8.449  0.0000E+00  0.1280E+03
     -8.335  0.0000E+00  0.1280E+03
     -8.222  0.0000E+00  0.1280E+03
     -8.109  0.0000E+00  0.1280E+03
     -7.996  0.0000E+00  0.1280E+03
     -7.883  0.0000E+00  0.1280E+03
     -7.770  0.0000E+00  0.1280E+03
     -7.657  0.0000E+00  0.1280E+03
     -7.543  0.0000E+00  0.1280E+03
     -7.430  0.0000E+00  0.1280E+03
     -7.317  0.0000E+00  0.1280E+03
     -7.204  0.0000E+00  0.1280E+03
     -7.091  0.0000E+00  0.1280E+03
     -6.978  0.0000E+00  0.1280E+03
     -6.864  0.0000E+00  0.1280E+03
     -6.751  0.0000E+00  0.1280E+03
     -6.638  0.0000E+00  0.1280E+03
     -6.525  0.5014E-02  0.1280E+03
     -6.412  0.6496E-01  0.1280E+03
     -6.299  0.8559E+00  0.1281E+03
     -6.186  0.6822E+01  0.1289E+03
     -6.072  0.9795E+01  0.1300E+03
     -5.959  0.9745E+01  0.1311E+03
     -5.846  0.9261E+01  0.1321E+03
     -5.733  0.1686E+02  0.1340E+03
     -5.620  0.3126E+02  0.1376E+03
     -5.507  0.2788E+02  0.1407E+03
     -5.393  0.3568E+02  0.1448E+03
     -5.280  0.3766E+02  0.1491E+03
     -5.167  0.4372E+02  0.1540E+03
     -5.054  0.4332E+02  0.1589E+03
     -4.941  0.5311E+02  0.1649E+03
     -4.828  0.5289E+02  0.1709E+03
     -4.715  0.5254E+02  0.1769E+03
     -4.601  0.5696E+02  0.1833E+03
     -4.488  0.4586E+02  0.1885E+03
     -4.375  0.4715E+02  0.1939E+03
     -4.262  0.4334E+02  0.1988E+03
     -4.149  0.4124E+02  0.2035E+03
     -4.036  0.5301E+02  0.2095E+03
     -3.922  0.5088E+02  0.2152E+03
     -3.809  0.4461E+02  0.2203E+03
     -3.696  0.4360E+02  0.2252E+03
     -3.583  0.5123E+02  0.2310E+03
     -3.470  0.5034E+02  0.2368E+03
     -3.357  0.4537E+02  0.2419E+03
     -3.244  0.3960E+02  0.2464E+03
     -3.130  0.3826E+02  0.2507E+03
     -3.017  0.3378E+02  0.2546E+03
     -2.904  0.1144E+02  0.2559E+03
     -2.791  0.1181E+01  0.2560E+03
     -2.678  0.3752E+00  0.2560E+03
     -2.565  0.4038E+01  0.2565E+03
     -2.451  0.1294E+02  0.2580E+03
     -2.338  0.1663E+02  0.2598E+03
     -2.225  0.2142E+02  0.2623E+03
     -2.112  0.2838E+02  0.2655E+03
     -1.999  0.3234E+02  0.2691E+03
     -1.886  0.4367E+02  0.2741E+03
     -1.772  0.4910E+02  0.2797E+03
     -1.659  0.4870E+02  0.2852E+03
     -1.546  0.5373E+02  0.2913E+03
     -1.433  0.6267E+02  0.2984E+03
     -1.320  0.7504E+02  0.3069E+03
     -1.207  0.7676E+02  0.3156E+03
     -1.094  0.7385E+02  0.3239E+03
     -0.980  0.6990E+02  0.3319E+03
     -0.867  0.8176E+02  0.3411E+03
     -0.754  0.8645E+02  0.3509E+03
     -0.641  0.9017E+02  0.3611E+03
     -0.528  0.9665E+02  0.3721E+03
     -0.415  0.1000E+03  0.3834E+03
     -0.301  0.9949E+02  0.3947E+03
     -0.188  0.9183E+02  0.4051E+03
     -0.075  0.9619E+02  0.4160E+03
      0.038  0.9772E+02  0.4271E+03
      0.151  0.9255E+02  0.4376E+03
      0.264  0.9824E+02  0.4487E+03
      0.377  0.9317E+02  0.4593E+03
      0.491  0.8191E+02  0.4686E+03
      0.604  0.8900E+02  0.4787E+03
      0.717  0.7938E+02  0.4877E+03
      0.830  0.7639E+02  0.4963E+03
      0.943  0.5193E+02  0.5022E+03
      1.056  0.3666E+02  0.5064E+03
      1.170  0.3231E+02  0.5101E+03
      1.283  0.1488E+02  0.5117E+03
      1.396  0.2023E+01  0.5120E+03
      1.509  0.1210E+00  0.5120E+03
      1.622  0.0000E+00  0.5120E+03
      1.735  0.0000E+00  0.5120E+03
      1.848  0.0000E+00  0.5120E+03
      1.962  0.0000E+00  0.5120E+03
      2.075  0.0000E+00  0.5120E+03
      2.188  0.0000E+00  0.5120E+03
      2.301  0.0000E+00  0.5120E+03
      2.414  0.0000E+00  0.5120E+03
      2.527  0.0000E+00  0.5120E+03
      2.641  0.0000E+00  0.5120E+03
      2.754  0.0000E+00  0.5120E+03
      2.867  0.0000E+00  0.5120E+03
      2.980  0.0000E+00  0.5120E+03
      3.093  0.0000E+00  0.5120E+03
      3.206  0.0000E+00  0.5120E+03
      3.319  0.0000E+00  0.5120E+03
      3.433  0.0000E+00  0.5120E+03
      3.546  0.0000E+00  0.5120E+03
      3.659  0.0000E+00  0.5120E+03
      3.772  0.0000E+00  0.5120E+03
      3.885  0.0000E+00  0.5120E+03
      3.998  0.0000E+00  0.5120E+03
      4.112  0.0000E+00  0.5120E+03
      4.225  0.0000E+00  0.5120E+03
      4.338  0.0000E+00  0.5120E+03
      4.451  0.0000E+00  0.5120E+03
      4.564  0.0000E+00  0.5120E+03
      4.677  0.0000E+00  0.5120E+03
      4.790  0.0000E+00  0.5120E+03
      4.904  0.0000E+00  0.5120E+03
      5.017  0.0000E+00  0.5120E+03
      5.130  0.0000E+00  0.5120E+03