unknown system                          
           1
    12.450170    0.000000    0.000000
    -6.225111   10.782148    0.000000
     0.000000    0.000000    8.997517
   Mg   O    H 
  32  64  64
Direct configuration=    50
   0.00346824  0.00551019  0.25132822
   0.99383893  0.00586320  0.75986397
   0.01223663  0.25630825  0.26737862
   0.00304544  0.25914792  0.74492545
   0.01083571  0.50691434  0.25966125
   0.99248117  0.50022530  0.75180632
   0.99850361  0.74987203  0.23981582
   0.00557506  0.75777754  0.75055515
   0.24949027  0.00139551  0.23616404
   0.24486097  0.99915072  0.73105831
   0.25519667  0.24919501  0.25078735
   0.23765415  0.24598038  0.73736413
   0.24893506  0.49693419  0.25634750
   0.24694037  0.49979239  0.74557029
   0.25410263  0.75365444  0.24866569
   0.25577399  0.75204072  0.76121835
   0.50480648  0.00778963  0.24445330
   0.49559447  0.99362127  0.74867403
   0.48982226  0.24741771  0.24578051
   0.50312494  0.24209119  0.74913251
   0.49683952  0.50226496  0.25681994
   0.50523895  0.50842621  0.76058904
   0.49366882  0.75178085  0.25304614
   0.50672079  0.75515514  0.74059501
   0.75001936  0.00007498  0.25316911
   0.74564973  0.00255120  0.75940692
   0.75909772  0.24435943  0.25898891
   0.76000964  0.24931746  0.76368863
   0.74200379  0.49370028  0.24733353
   0.73703867  0.48337245  0.72733423
   0.75413853  0.75413601  0.25694116
   0.75185139  0.74876858  0.75463656
   0.17549425  0.08968008  0.14025958
   0.14774390  0.07227273  0.62960039
   0.17403458  0.33155634  0.13585036
   0.15049280  0.32253102  0.62476477
   0.17418638  0.57791651  0.13671979
   0.16684374  0.57190657  0.62979140
   0.16577063  0.82725802  0.13386184
   0.16808642  0.83605189  0.62787022
   0.40962841  0.07631523  0.13129293
   0.41109250  0.06710228  0.63377123
   0.40446149  0.34678835  0.11554826
   0.40392012  0.33599164  0.63323696
   0.41782676  0.59805438  0.14137871
   0.41043998  0.57282884  0.64719469
   0.41789314  0.83670321  0.14187067
   0.41630639  0.82341571  0.63803636
   0.68207449  0.08294231  0.12042262
   0.65392192  0.07790832  0.62420786
   0.66874515  0.33768702  0.13651132
   0.65119953  0.31749591  0.61023409
   0.67490657  0.59151796  0.13883979
   0.67566239  0.58961806  0.63249595
   0.67216561  0.83813596  0.13258152
   0.66986713  0.83799981  0.63697965
   0.92764167  0.10120516  0.13446237
   0.91145964  0.07222123  0.62876737
   0.90759763  0.33406962  0.12801197
   0.92548805  0.33774860  0.63381863
   0.91260468  0.57787484  0.16121118
   0.90929557  0.56941360  0.62728721
   0.91728188  0.84034094  0.14365558
   0.91516177  0.82918776  0.63633036
   0.08710938  0.16398383  0.36942058
   0.07844842  0.17359900  0.86486270
   0.08735864  0.42035368  0.36645932
   0.07837411  0.41627140  0.87091233
   0.10245297  0.67975007  0.38228263
   0.09506959  0.67566082  0.86056116
   0.09286011  0.91690116  0.35818459
   0.08715414  0.92997504  0.86632175
   0.33210857  0.16606841  0.36081003
   0.33260137  0.15379327  0.84380947
   0.32340526  0.41507503  0.36569584
   0.31997380  0.40789566  0.87177263
   0.31765319  0.66390234  0.37427538
   0.34190193  0.66693958  0.86564110
   0.33696384  0.91652300  0.36142979
   0.33404772  0.91746539  0.87010375
   0.58341044  0.16769062  0.35543441
   0.58293730  0.16041988  0.87474413
   0.58540748  0.41880204  0.36147581
   0.58490010  0.40654623  0.85147755
   0.57667075  0.66677917  0.36722186
   0.59495777  0.68572052  0.86511514
   0.57446355  0.90323808  0.37608388
   0.57399112  0.91213690  0.86954564
   0.83616326  0.15492877  0.37314977
   0.84455719  0.16890876  0.86694386
   0.84675118  0.42110608  0.37903713
   0.83854833  0.42864441  0.86225083
   0.82950257  0.66734458  0.35627935
   0.84804737  0.67422816  0.86841345
   0.83199339  0.91904275  0.36498004
   0.83771058  0.91592629  0.86750474
   0.16333474  0.09085039  0.02553084
   0.15897304  0.08843710  0.52679022
   0.16340397  0.30664517  0.03307119
   0.11664808  0.30672872  0.52795183
   0.15678059  0.56009661  0.03173105
   0.17631806  0.61637099  0.54143620
   0.17693482  0.81844328  0.02592789
   0.15796926  0.80065257  0.52778969
   0.42855930  0.08911012  0.02914905
   0.41434259  0.08056536  0.52551806
   0.37550080  0.34796842  0.01754153
   0.41430548  0.38526166  0.53455214
   0.42258458  0.57871759  0.03564768
   0.41286634  0.54774906  0.55040556
   0.40653162  0.82322519  0.03816136
   0.38722991  0.82805044  0.53694539
   0.64160167  0.04927163  0.01575089
   0.66233983  0.03365413  0.53590054
   0.68080865  0.36885754  0.03510252
   0.64186099  0.26912299  0.51995032
   0.67800345  0.58398462  0.03138622
   0.66351041  0.58281249  0.52776497
   0.68406058  0.85656753  0.02294028
   0.67308531  0.86413999  0.53659049
   0.89886151  0.07368727  0.03013370
   0.89049805  0.05466807  0.52135417
   0.93977230  0.32176655  0.02613817
   0.90772404  0.35178016  0.53478306
   0.90963024  0.57321667  0.05292039
   0.90513841  0.58854815  0.52492964
   0.92736730  0.84505314  0.03908054
   0.97206192  0.84541954  0.55546524
   0.06842152  0.15838672  0.48339985
   0.04287043  0.14621223  0.96556886
   0.09436847  0.45448508  0.46785353
   0.08433207  0.40419859  0.97141418
   0.06702679  0.64503423  0.47928458
   0.08183605  0.66616819  0.96094944
   0.11093457  0.91077034  0.46215077
   0.10125382  0.94155022  0.97333033
   0.33709093  0.17624546  0.47010291
   0.33963945  0.15266200  0.95311975
   0.28164763  0.38013334  0.46177725
   0.28695816  0.42478025  0.96119510
   0.31706805  0.62621194  0.46418256
   0.34135918  0.66686356  0.97219033
   0.32727224  0.91983084  0.46863455
   0.33689041  0.94323315  0.97409960
   0.60568170  0.15724678  0.46106623
   0.60563241  0.19106655  0.97508663
   0.59860658  0.41322399  0.47671413
   0.54840915  0.40121402  0.95433189
   0.57178886  0.67887952  0.46972676
   0.59309675  0.70835804  0.97245321
   0.52444249  0.86586319  0.46758226
   0.52654118  0.86680194  0.95939586
   0.84073867  0.17309877  0.47893204
   0.81905808  0.16443277  0.97864715
   0.84944056  0.44437321  0.48527039
   0.84139818  0.39508516  0.95676614
   0.83639151  0.69828666  0.45982166
   0.82721005  0.65239629  0.96679708
   0.82515535  0.90839486  0.46766011
   0.84203856  0.89766505  0.97870293
Direct configuration=   100
   0.00749637  0.00833173  0.25459909
   0.99265279  0.00114510  0.75572389
   0.00815242  0.25318509  0.27287741
   0.99237384  0.24902446  0.74785812
   0.01084408  0.50766002  0.26211201
   0.01224872  0.51263955  0.74552547
   0.00078977  0.75422138  0.25107313
   0.00834640  0.75889084  0.76429241
   0.25187979  0.99040636  0.23361423
   0.23579099  0.99361691  0.71668134
   0.25522710  0.25625885  0.25391495
   0.23471205  0.23880557  0.72999505
   0.25509800  0.50506990  0.24600484
   0.24171172  0.49098714  0.74590662
   0.25154010  0.75070161  0.26444259
   0.26087499  0.74939486  0.77259298
   0.50419273  0.00133015  0.23650518
   0.49098786  0.99011819  0.75387414
   0.49739687  0.25855981  0.22716413
   0.48899915  0.22474194  0.73069503
   0.49814527  0.50837616  0.25943752
   0.50188256  0.50151093  0.77358157
   0.49517421  0.75032327  0.25592607
   0.50423663  0.74074814  0.73654766
   0.75281512  0.99391619  0.26401026
   0.74647622  0.99554579  0.76696524
   0.76651221  0.25427072  0.25534567
   0.75282416  0.24797434  0.74994955
   0.74824454  0.49947607  0.26640990
   0.74091155  0.48164890  0.71109785
   0.74014681  0.75421343  0.24585846
   0.77091138  0.75660679  0.74933253
   0.16490630  0.08960001  0.11225421
   0.14791715  0.07647614  0.61978094
   0.15978969  0.33143015  0.13666098
   0.16243716  0.33271796  0.61437420
   0.16921349  0.58949690  0.13247819
   0.15782165  0.58194905  0.62929387
   0.16265248  0.81968300  0.11698515
   0.16431047  0.82101353  0.62221539
   0.42568442  0.09234269  0.10993715
   0.41254148  0.06837577  0.61198573
   0.42440934  0.35531169  0.12890974
   0.40294303  0.33859544  0.63389973
   0.41302006  0.58298600  0.13706363
   0.42376756  0.58131370  0.63031999
   0.42163501  0.84550118  0.12530145
   0.40342994  0.82430417  0.61775346
   0.68055726  0.07768014  0.13528183
   0.65807725  0.07420106  0.64100178
   0.65270537  0.31560923  0.12716784
   0.65120289  0.31531913  0.62397784
   0.66210129  0.58677093  0.13644055
   0.66068030  0.58230407  0.64313556
   0.66787850  0.84188280  0.14055424
   0.67495895  0.84521749  0.62865783
   0.93708920  0.09857624  0.13819537
   0.89758903  0.08171817  0.64254475
   0.92591901  0.34906538  0.14875503
   0.90516312  0.32990129  0.63926834
   0.92708260  0.58336286  0.13709454
   0.90641020  0.57654001  0.61416947
   0.93358924  0.85407157  0.12037613
   0.92591962  0.83317173  0.62581697
   0.08954859  0.16570255  0.38000206
   0.07643661  0.17610421  0.87363887
   0.09031321  0.41677305  0.38519071
   0.08510701  0.42882975  0.86637327
   0.08935825  0.67717678  0.38370297
   0.08129927  0.66734228  0.86375416
   0.08843075  0.91611152  0.35767777
   0.09044382  0.93071456  0.86035359
   0.34209497  0.16954146  0.36111846
   0.33036096  0.16795466  0.83780176
   0.32890480  0.41233705  0.39082915
   0.31299524  0.40657401  0.87329820
   0.33135359  0.65806548  0.38108090
   0.34082501  0.66452775  0.86919615
   0.34654879  0.93225292  0.35887524
   0.32904919  0.91360912  0.86700690
   0.60109648  0.16661659  0.35887325
   0.59888467  0.16549726  0.86520614
   0.56101586  0.40589319  0.35991706
   0.57322658  0.40669252  0.85856526
   0.57951814  0.67418338  0.37324212
   0.58716756  0.66906215  0.87660298
   0.58098795  0.92184032  0.38111519
   0.58290761  0.92063142  0.87602273
   0.84081486  0.16658463  0.37571434
   0.83089934  0.16409089  0.87332721
   0.84644386  0.40302575  0.37641079
   0.81419788  0.40516225  0.87281344
   0.84271817  0.67009953  0.39226526
   0.84251120  0.67205347  0.86673354
   0.84100141  0.91904394  0.37576809
   0.82104961  0.91758743  0.88888971
   0.15390908  0.11016693  0.00998155
   0.13580371  0.05961033  0.51371095
   0.12137107  0.27648745  0.04733754
   0.13496258  0.33782187  0.51136667
   0.18781352  0.61706573  0.02657948
   0.19060218  0.58913459  0.52117569
   0.18698792  0.83952880  0.01228370
   0.14001667  0.77173947  0.53182437
   0.44743304  0.12146429  0.00127785
   0.45598542  0.10019929  0.51784266
   0.41709042  0.37889189  0.01782221
   0.40833801  0.33915502  0.52840038
   0.42973041  0.59698415  0.02937865
   0.42696966  0.57068688  0.51412058
   0.36293758  0.84193340  0.04388065
   0.35252723  0.81337571  0.53020178
   0.66517631  0.05033820  0.04021557
   0.67065266  0.06889938  0.53776685
   0.68461886  0.32368424  0.02481813
   0.66740856  0.29833998  0.52577623
   0.62246247  0.57577537  0.03824061
   0.64924334  0.58787760  0.53615583
   0.68711115  0.86446534  0.03610609
   0.67795759  0.87350319  0.52285707
   0.89984947  0.11284714  0.05028492
   0.87777243  0.05827170  0.53887382
   0.91584992  0.32491337  0.03988457
   0.92402529  0.33703014  0.53174174
   0.90719273  0.56120983  0.03066582
   0.90711905  0.62548476  0.52657967
   0.93412066  0.82082438  0.01815238
   0.94144730  0.87489610  0.52800187
   0.08769984  0.17788000  0.48489339
   0.02843910  0.13331369  0.95998888
   0.09268721  0.45490873  0.48318261
   0.12693447  0.43858376  0.97374235
   0.05278393  0.63837052  0.48227675
   0.07301098  0.66262125  0.97768390
   0.12040043  0.90571800  0.45495818
   0.10490294  0.93367328  0.96799215
   0.34867143  0.18972155  0.46640889
   0.32964718  0.19359012  0.94100849
   0.31463265  0.40694233  0.49851433
   0.27415828  0.38578728  0.97200595
   0.39325176  0.70974509  0.46319199
   0.36787746  0.66075685  0.97005984
   0.32796718  0.95674348  0.45475427
   0.32849696  0.95019661  0.96527417
   0.59267280  0.13820378  0.45799346
   0.61988421  0.15444072  0.96850650
   0.53643283  0.38279409  0.45555619
   0.58979807  0.37245420  0.94532595
   0.60608704  0.68457907  0.47963946
   0.61806203  0.70752236  0.97201750
   0.54359459  0.91790943  0.47553025
   0.53995398  0.88900920  0.97138350
   0.80890282  0.14952353  0.47738174
   0.79449626  0.15619135  0.96009175
   0.83620765  0.42461884  0.47970708
   0.83582449  0.42386482  0.98047054
   0.82715989  0.67446571  0.49784644
   0.83156686  0.64902303  0.97241283
   0.82433292  0.88003934  0.48838595
   0.86806039  0.91684264  0.97227457
Direct configuration=   150
   0.01885105  0.00732644  0.24525610
   0.99470182  0.00009916  0.73904826
   0.99488406  0.24785101  0.27377402
   0.97905335  0.24422238  0.76798665
   0.00252342  0.50311676  0.25132585
   0.00204646  0.50648056  0.73653456
   0.99967482  0.75667960  0.25864006
   0.00478343  0.74427416  0.76665713
   0.25990053  0.00315106  0.21202331
   0.23545739  0.98992048  0.70573958
   0.25444201  0.26115748  0.25055877
   0.24621858  0.24988280  0.73394212
   0.25000881  0.50451643  0.23846813
   0.25407450  0.49274413  0.74521411
   0.25103917  0.75226645  0.28237364
   0.24276106  0.73602525  0.76769924
   0.51611585  0.01302700  0.22948643
   0.50183036  0.99446820  0.74810530
   0.50651559  0.25773999  0.21238069
   0.47672729  0.23904641  0.71808762
   0.49896776  0.50612058  0.27076805
   0.47795956  0.47101713  0.77696848
   0.50437393  0.75895517  0.24076088
   0.50229447  0.72920865  0.74704043
   0.76572198  0.00843520  0.29716794
   0.74074726  0.99185714  0.78043345
   0.75232411  0.25393848  0.23694433
   0.72774256  0.23632184  0.73004699
   0.75777709  0.50394318  0.28790034
   0.74778975  0.49592330  0.73664326
   0.74268302  0.75050118  0.22629730
   0.76262413  0.75418810  0.74305541
   0.17204037  0.09146605  0.12118098
   0.16130017  0.08385623  0.61459610
   0.15429673  0.34547215  0.15180099
   0.16691889  0.33991168  0.64226825
   0.17579829  0.60937428  0.16100611
   0.18123286  0.60698687  0.62617119
   0.17320776  0.83149108  0.13756407
   0.16387363  0.81795532  0.64575957
   0.43110711  0.09829248  0.09391520
   0.41092949  0.07894907  0.59374817
   0.42921209  0.34783017  0.14391537
   0.42235006  0.32875711  0.62249701
   0.41642716  0.57163889  0.13424287
   0.42661192  0.58730854  0.62176200
   0.41530536  0.83176493  0.11676489
   0.40327316  0.83387006  0.62073267
   0.67700452  0.07590708  0.14677261
   0.66971596  0.06862351  0.65369321
   0.67967341  0.32123150  0.12431851
   0.66249369  0.32238733  0.62734216
   0.66030090  0.58271439  0.15746410
   0.65072816  0.57726716  0.64850473
   0.65553558  0.83972397  0.14687511
   0.67465571  0.83075052  0.63193537
   0.91925273  0.07989309  0.15017155
   0.90262361  0.09067153  0.66030950
   0.95246831  0.34592404  0.15267404
   0.90767151  0.33782109  0.64408046
   0.91934961  0.59528038  0.12159607
   0.92274343  0.58952892  0.63258985
   0.92086811  0.83522216  0.11937296
   0.93345962  0.84972246  0.63677378
   0.09225790  0.17333990  0.37531811
   0.06974803  0.15531128  0.86632121
   0.10092079  0.42811861  0.39182107
   0.08883699  0.43046467  0.84824290
   0.05739114  0.65404517  0.35782699
   0.06587743  0.65193729  0.88574965
   0.09341637  0.92449799  0.36139890
   0.08399339  0.91472614  0.84855106
   0.34214407  0.16268437  0.32539688
   0.31608374  0.16553591  0.84591826
   0.34956654  0.42359382  0.37435854
   0.32040585  0.40812801  0.85959956
   0.36573476  0.67951173  0.37002598
   0.33790966  0.66335589  0.86194865
   0.33667665  0.92516328  0.34480662
   0.32566557  0.92264719  0.85420341
   0.60717439  0.16190280  0.37664313
   0.56308137  0.14774814  0.84862194
   0.57926309  0.41509836  0.37868479
   0.56971586  0.39707738  0.87378656
   0.60189494  0.68746375  0.37477492
   0.57711087  0.64246423  0.87763510
   0.59048380  0.93559370  0.36952426
   0.57079813  0.90481447  0.87675962
   0.84015449  0.17712101  0.37390306
   0.81254899  0.16245712  0.89337812
   0.83280508  0.41973666  0.36888748
   0.79910860  0.39051794  0.86127809
   0.84168122  0.66251301  0.38418027
   0.83007483  0.66686826  0.86011252
   0.84915392  0.90537434  0.37137791
   0.81715325  0.90457376  0.89206498
   0.16169755  0.12701066  0.03482597
   0.11776483  0.08707568  0.51547894
   0.15423873  0.35846100  0.04381664
   0.16183437  0.36914928  0.53936698
   0.19559420  0.60146383  0.05770306
   0.24388196  0.66288841  0.54954326
   0.14116471  0.82004705  0.03956118
   0.17415127  0.83766810  0.53965914
   0.48410657  0.14478233  0.00571459
   0.45643097  0.12973316  0.50853416
   0.45665255  0.36519155  0.04744712
   0.40868994  0.35812083  0.51832292
   0.41642026  0.52580587  0.04845595
   0.43672621  0.60036189  0.50879862
   0.35439987  0.84762556  0.05870546
   0.37753014  0.88966087  0.58507776
   0.67841329  0.01247662  0.06722202
   0.65184015  0.03447369  0.55478258
   0.66999347  0.30213898  0.01821647
   0.65776442  0.36695068  0.54179117
   0.66665661  0.55921783  0.05618314
   0.60235933  0.55881954  0.54925178
   0.66318642  0.85458401  0.03628454
   0.63280240  0.85690181  0.56016255
   0.87160450  0.08217829  0.06588105
   0.94017718  0.11457239  0.56800196
   0.97847405  0.36189243  0.06045037
   0.90881603  0.34083158  0.53136406
   0.89622686  0.62026023  0.02886915
   0.88229678  0.60801612  0.54912268
   0.94750489  0.82793229  0.01253781
   0.89342081  0.82058219  0.54166753
   0.12804857  0.22627396  0.46221289
   0.05608096  0.18658327  0.96477246
   0.09671724  0.45269038  0.48879372
   0.07464623  0.47193679  0.94425320
   0.08178216  0.65681640  0.45872215
   0.05798702  0.63219787  0.99886370
   0.09105727  0.94439636  0.46518257
   0.13574466  0.96748423  0.92710704
   0.31479147  0.12422692  0.42009890
   0.29507185  0.12690396  0.93911946
   0.31297643  0.45747357  0.43751085
   0.33687662  0.38225265  0.95408251
   0.36701524  0.69370102  0.47716075
   0.38430778  0.70531877  0.95883109
   0.39031134  0.97762915  0.42431191
   0.34130005  0.96638237  0.94476933
   0.61346960  0.15145078  0.47671774
   0.59955197  0.14518999  0.94599126
   0.55241168  0.36583641  0.47794472
   0.62336046  0.41382948  0.95144788
   0.62460275  0.73140824  0.47712539
   0.54474982  0.63379778  0.97329058
   0.52515808  0.89629165  0.44730430
   0.57336960  0.89525059  0.98282538
   0.85229369  0.18942787  0.48281818
   0.81258319  0.19394207  0.01115294
   0.84795884  0.42408169  0.47082759
   0.83111533  0.42300854  0.96549213
   0.79891615  0.68896782  0.44946437
   0.78643920  0.67747233  0.95875234
   0.82568642  0.90054503  0.46984060
   0.84620280  0.92379013  0.99954788
Direct configuration=   200
   0.01262114  0.99668846  0.23639366
   0.00476230  0.00847913  0.73915069
   0.00725477  0.25279223  0.26913469
   0.97950539  0.25892635  0.79547062
   0.98965342  0.49949095  0.23643605
   0.97577284  0.48782740  0.72985828
   0.99884548  0.75664888  0.25748098
   0.99303671  0.74016859  0.76187942
   0.26793823  0.02028799  0.19085309
   0.25368220  0.00271539  0.70998523
   0.26005213  0.26242064  0.23651510
   0.24277217  0.25074523  0.73757972
   0.25543432  0.51623301  0.26018534
   0.26825440  0.52000217  0.74646140
   0.25282808  0.75853719  0.28868122
   0.23165869  0.74709311  0.77337580
   0.51348712  0.01699945  0.23230743
   0.49515993  0.98132043  0.73845390
   0.51694457  0.24339075  0.22617132
   0.49017646  0.25008313  0.73908950
   0.52124760  0.51097503  0.28213383
   0.49493869  0.47352124  0.74798530
   0.51166447  0.76476626  0.21959976
   0.50689667  0.73273983  0.77584406
   0.76951170  0.01071220  0.31734403
   0.73991317  0.98932902  0.80260158
   0.75226705  0.24160830  0.24438827
   0.72198148  0.23538595  0.72827848
   0.75280034  0.51004357  0.26936735
   0.74108543  0.50651111  0.77681653
   0.75983324  0.75932164  0.22046009
   0.72948112  0.73534984  0.74389539
   0.17503484  0.10187919  0.11923707
   0.16921030  0.09726183  0.61024717
   0.17451476  0.34399593  0.13996524
   0.14931675  0.32347933  0.64650540
   0.17907008  0.59461596  0.15461468
   0.19104228  0.59352723  0.62137000
   0.16920890  0.84220213  0.14959297
   0.15667565  0.81939715  0.63704804
   0.43173514  0.08614116  0.10269292
   0.40924953  0.08822518  0.59311969
   0.41419170  0.34495339  0.11944837
   0.41244476  0.33496138  0.60254672
   0.42130526  0.58418960  0.13777237
   0.40831736  0.56724801  0.62990120
   0.40702380  0.81980615  0.12495736
   0.41532746  0.84383470  0.62719345
   0.68788747  0.09041611  0.13419028
   0.66935756  0.06176401  0.62483635
   0.69798835  0.35296342  0.11627981
   0.66160147  0.34537271  0.61938801
   0.67390780  0.57071894  0.15762226
   0.66035169  0.57531927  0.64286120
   0.68175780  0.84945554  0.11463331
   0.65679905  0.81869821  0.64678962
   0.89845310  0.07094884  0.16856270
   0.91338062  0.07951917  0.64697811
   0.92478375  0.32539252  0.12132196
   0.91750943  0.33390333  0.62652813
   0.89918372  0.59370195  0.13417183
   0.91676996  0.59190292  0.64947747
   0.91424588  0.82148865  0.13184228
   0.90789654  0.82784492  0.64102588
   0.09726305  0.18602600  0.36892616
   0.07633189  0.15616324  0.87083161
   0.10769251  0.44096114  0.39033743
   0.08390579  0.42602729  0.85921787
   0.07323101  0.66151977  0.36976186
   0.07253504  0.63487497  0.89734413
   0.10784534  0.93500111  0.35655436
   0.07296377  0.90791364  0.86539612
   0.34550518  0.17161000  0.32225599
   0.31028850  0.14492430  0.84679440
   0.33870897  0.41862479  0.36515873
   0.32752885  0.39651930  0.87550144
   0.36350341  0.69609089  0.36379753
   0.33432779  0.66162767  0.86871398
   0.35134687  0.93717703  0.34385948
   0.32664003  0.92720156  0.83680757
   0.58204247  0.16560792  0.35844897
   0.52635063  0.14181041  0.84760949
   0.61440485  0.42135660  0.39907458
   0.56551180  0.38200165  0.89195087
   0.61142062  0.68210478  0.36472888
   0.56439954  0.62916292  0.87298968
   0.58502539  0.91651257  0.38203755
   0.55372089  0.88044890  0.86518595
   0.83735590  0.18534125  0.39883298
   0.80986918  0.16879236  0.88858052
   0.84129578  0.43259148  0.37198330
   0.81279008  0.40764210  0.85099882
   0.83711075  0.67411342  0.37458057
   0.82125232  0.65915002  0.87227778
   0.84554291  0.90586147  0.35865532
   0.82402729  0.89200765  0.85915328
   0.16098137  0.06611081  0.00548378
   0.19875221  0.14263309  0.52207834
   0.15016674  0.35532442  0.04661926
   0.13265020  0.36335467  0.56781380
   0.19732694  0.65075396  0.07672528
   0.22379759  0.64043530  0.53644299
   0.18220588  0.80139490  0.06566689
   0.12156730  0.76551864  0.54686189
   0.45118486  0.07772818  0.99013738
   0.44271758  0.08843981  0.49105083
   0.45487904  0.34215883  0.01128667
   0.39458497  0.37621959  0.50708074
   0.38956382  0.54449794  0.04438698
   0.45845625  0.58717643  0.55245312
   0.39818046  0.83197430  0.02664305
   0.37481836  0.81310818  0.53106597
   0.68519501  0.08417421  0.02324215
   0.63057697  0.00304690  0.54100973
   0.72147276  0.35896602  0.01289454
   0.62456280  0.35088738  0.52036305
   0.63547705  0.54551547  0.06230027
   0.65169908  0.55567342  0.53437046
   0.68932681  0.82674008  0.00571862
   0.66875997  0.85254556  0.55188691
   0.86858953  0.03203371  0.07132714
   0.88578908  0.08550522  0.54784302
   0.99295924  0.32619101  0.04435827
   0.97132231  0.33818135  0.54446136
   0.84738936  0.57694399  0.05163566
   0.87384246  0.57583478  0.55409414
   0.95765942  0.83728909  0.04484987
   0.96594020  0.82959051  0.56643263
   0.09579412  0.19209641  0.48806926
   0.08575204  0.13306154  0.97767392
   0.13370110  0.49887068  0.48404284
   0.10102022  0.47152586  0.94454997
   0.00975970  0.60067353  0.43270200
   0.00937458  0.64657841  0.96697383
   0.12914967  0.95708897  0.45699494
   0.11064647  0.89978441  0.95883189
   0.35649417  0.16414075  0.42830441
   0.36487617  0.18086064  0.93113072
   0.31051359  0.40401792  0.46781801
   0.30468437  0.37607327  0.98134823
   0.37000128  0.67763051  0.46360366
   0.33778265  0.65326935  0.97343802
   0.29847253  0.93537739  0.42499437
   0.31248571  0.93322403  0.94099757
   0.61763592  0.16164296  0.45760992
   0.56057643  0.18139897  0.94284713
   0.52287804  0.37578045  0.44887337
   0.58390944  0.36371170  0.99940540
   0.62957222  0.72525204  0.45203848
   0.55842086  0.65347406  0.97951565
   0.53999124  0.89699565  0.47902350
   0.48252009  0.85363138  0.94072091
   0.82696475  0.22415788  0.48616334
   0.83412293  0.20859646  0.97489517
   0.80132054  0.38967276  0.46449192
   0.86420157  0.41359035  0.93422401
   0.80004941  0.66692719  0.47255243
   0.84655022  0.70510789  0.96450037
   0.87451974  0.88161089  0.46309655
   0.84879989  0.87858429  0.97218223
Direct configuration=   250
   0.00104019  0.00001909  0.24484612
   0.00113744  0.00181813  0.74217281
   0.01800480  0.26076662  0.26242873
   0.99434464  0.24935279  0.78377877
   0.99212385  0.50020620  0.23050777
   0.98234210  0.48839530  0.73745250
   0.00523967  0.75611806  0.26540334
   0.98457436  0.75289250  0.76453032
   0.26486623  0.01846221  0.20958687
   0.25803762  0.00890716  0.71139469
   0.26282449  0.25998791  0.23041893
   0.23247076  0.24483733  0.74566893
   0.27272703  0.52141198  0.27155188
   0.24659504  0.50047479  0.74974821
   0.25246021  0.76104106  0.27343551
   0.23748156  0.74699649  0.76707974
   0.50476726  0.99356341  0.24024592
   0.48848105  0.98307726  0.73494761
   0.51346315  0.25333485  0.22409426
   0.49139817  0.24356947  0.72780615
   0.52025708  0.50532665  0.27185068
   0.50113105  0.48963475  0.73889563
   0.52255441  0.76498906  0.21464322
   0.48821718  0.72466649  0.76636194
   0.75994608  0.00216240  0.30982062
   0.74715660  0.98987249  0.78833106
   0.76486966  0.25172338  0.25957195
   0.73067088  0.24172658  0.72427577
   0.75756460  0.50609084  0.25558093
   0.73137695  0.49322241  0.78486820
   0.75870064  0.75942014  0.23764322
   0.73067188  0.72822082  0.75077981
   0.15977893  0.09217935  0.09884435
   0.16700021  0.08524097  0.61530861
   0.17484887  0.34278937  0.12436513
   0.14141785  0.32699147  0.64351630
   0.15769761  0.58162425  0.13238376
   0.16548669  0.57998648  0.63345980
   0.15915958  0.82697464  0.12199933
   0.14031116  0.81869734  0.62373511
   0.43262011  0.07934360  0.10863046
   0.41683718  0.09513655  0.60467231
   0.43195504  0.34687522  0.12641692
   0.40461153  0.33540333  0.62188321
   0.42966374  0.59833710  0.14213116
   0.42302441  0.57129764  0.64058076
   0.40675501  0.83661572  0.13441194
   0.40557761  0.81462999  0.61849689
   0.66860990  0.08559810  0.14629976
   0.65945904  0.07652606  0.64223160
   0.67656834  0.35008353  0.13340924
   0.66558456  0.34161626  0.65194362
   0.66282028  0.58098399  0.12206346
   0.66343954  0.56623375  0.63774605
   0.68609856  0.83327425  0.10871506
   0.64079880  0.81623740  0.64939388
   0.91957418  0.09170524  0.16855313
   0.90444050  0.07751522  0.65732501
   0.90695126  0.32463030  0.11210470
   0.91191545  0.31958049  0.62622336
   0.91892303  0.58512631  0.13672315
   0.89203549  0.57476241  0.63537968
   0.94182912  0.84421187  0.11279650
   0.90572618  0.81506123  0.62322393
   0.10095465  0.17837839  0.36307418
   0.07754503  0.17259999  0.87625789
   0.09180946  0.43141696  0.37119670
   0.08186558  0.42997286  0.88008315
   0.09240383  0.68125552  0.38550011
   0.07615576  0.64629414  0.87990087
   0.10924869  0.93311162  0.34372447
   0.06978862  0.90455325  0.88008359
   0.36151602  0.19485230  0.35107197
   0.32260479  0.15843732  0.84542883
   0.33470019  0.42085746  0.37577197
   0.33360357  0.40442828  0.86897827
   0.34302896  0.68236495  0.38073154
   0.32812256  0.66845224  0.88562376
   0.35289161  0.94531158  0.36282931
   0.31913489  0.90950119  0.85448160
   0.59052829  0.17366764  0.34562123
   0.56555632  0.15447946  0.85332232
   0.58661636  0.41063375  0.38261630
   0.57089899  0.39415636  0.87407123
   0.59498692  0.67299707  0.35718382
   0.57328064  0.63914553  0.87269723
   0.58933034  0.90822551  0.37064582
   0.57353533  0.91337595  0.87336617
   0.83819224  0.17954671  0.38750562
   0.80780511  0.17015502  0.85883976
   0.84995222  0.41668192  0.36703242
   0.83195191  0.40618379  0.86513620
   0.83942121  0.68669785  0.37264560
   0.82674927  0.66592165  0.89481931
   0.84476206  0.91385666  0.37820836
   0.83280823  0.90109578  0.85531628
   0.17603872  0.11005312  0.99984165
   0.18133252  0.09977591  0.50992226
   0.14657171  0.30508386  0.02362171
   0.12964421  0.30386880  0.53839836
   0.17527993  0.62660876  0.03563080
   0.20349367  0.61951346  0.54187688
   0.12255748  0.78184185  0.02792885
   0.13008034  0.80394283  0.51750118
   0.47165828  0.10776327  0.01430015
   0.44623738  0.07332605  0.51632629
   0.44796691  0.38044535  0.03575060
   0.38212505  0.32938111  0.51792599
   0.41086927  0.54592392  0.05371750
   0.41326740  0.53808492  0.53187924
   0.35464804  0.80549755  0.04829113
   0.38143358  0.80750387  0.51195808
   0.68246067  0.07843878  0.04821262
   0.66926670  0.08373204  0.53878258
   0.72522200  0.37515938  0.03958092
   0.69401927  0.35579686  0.55029654
   0.65786827  0.55242630  0.02172834
   0.69209395  0.58248138  0.53724130
   0.71420012  0.89788158  0.03548146
   0.66401954  0.86502801  0.55929966
   0.90331916  0.11823161  0.07253985
   0.89517701  0.10276219  0.55314457
   0.94933473  0.33624657  0.01513088
   0.97468846  0.33063963  0.55759200
   0.91053859  0.60077618  0.02908756
   0.89029338  0.58834178  0.52820892
   0.99591160  0.87264392  0.01295254
   0.95857192  0.86220894  0.54017474
   0.07987236  0.14628606  0.45853333
   0.07003143  0.14816212  0.97611431
   0.10558520  0.47626562  0.46626269
   0.14294053  0.47131927  0.97450428
   0.07344468  0.65827134  0.49238118
   0.04323167  0.62345451  0.98352736
   0.10750253  0.94027382  0.45212696
   0.14022922  0.93960603  0.95107572
   0.37493810  0.17969737  0.45668734
   0.34162411  0.18010080  0.95230372
   0.27810268  0.37645990  0.46281234
   0.28204784  0.39482716  0.95551634