unknown system                          
           1
    12.450170    0.000000    0.000000
    -6.225111   10.782148    0.000000
     0.000000    0.000000    8.997517
   Mg   O    H 
  32  64  64
Direct configuration=    50
   0.99509496  0.98804818  0.24454172
   0.00088743  0.99951020  0.74592137
   0.00438207  0.24450432  0.24667024
   0.99292803  0.24674367  0.74359520
   0.00413177  0.50327201  0.25522173
   0.00230057  0.50033280  0.75414448
   0.00725556  0.75115456  0.25763577
   0.99285437  0.74206239  0.72960321
   0.25344391  0.00422163  0.23325169
   0.25471706  0.01033415  0.75179894
   0.24912373  0.24815572  0.24557759
   0.23645579  0.23583324  0.75555747
   0.25520844  0.49947772  0.25142678
   0.24910158  0.50015716  0.75570837
   0.25999136  0.74860374  0.24759669
   0.23835234  0.73909271  0.73856590
   0.49656624  0.99764026  0.25769911
   0.49784390  0.99688459  0.76718460
   0.49244479  0.24469386  0.25167335
   0.50066765  0.25514113  0.76177009
   0.50087452  0.49338143  0.25185534
   0.49490519  0.48705490  0.75158306
   0.50850637  0.75168953  0.25612848
   0.50440351  0.75720128  0.75335991
   0.76156509  0.01716086  0.24821724
   0.75535613  0.00668889  0.74896580
   0.74708188  0.25569009  0.24960442
   0.75067228  0.24975014  0.75511287
   0.74180146  0.49557251  0.24562334
   0.75349523  0.50603842  0.75933064
   0.74865292  0.75378691  0.24172008
   0.75599241  0.75547693  0.76514183
   0.16189336  0.08841621  0.13151846
   0.16238725  0.07543041  0.62760649
   0.16925194  0.33435807  0.12867044
   0.15870804  0.32441670  0.64367928
   0.15417555  0.57645351  0.13850118
   0.15640343  0.58045744  0.61750008
   0.17533312  0.83803088  0.12167370
   0.16390294  0.83991514  0.61660006
   0.41856206  0.08353054  0.12224918
   0.42634025  0.08396534  0.64419784
   0.40765988  0.32987613  0.13296748
   0.41451996  0.31879089  0.64004949
   0.42157355  0.59080194  0.11122223
   0.40873616  0.58328072  0.63891060
   0.42031422  0.83045420  0.13492606
   0.40788196  0.83311512  0.64322618
   0.65253501  0.08676872  0.13226712
   0.66313654  0.07750945  0.63377549
   0.65146909  0.32468425  0.11821046
   0.67426402  0.33968462  0.62949680
   0.68491327  0.59563832  0.11104687
   0.66847823  0.58371660  0.64051671
   0.68136173  0.85095307  0.11979345
   0.65906962  0.82316660  0.63894349
   0.92821444  0.08182731  0.13360131
   0.92278601  0.08984354  0.64211660
   0.91557649  0.33662451  0.13899606
   0.91515147  0.33282835  0.63291218
   0.89979115  0.58632968  0.15240369
   0.90582200  0.57720732  0.62887385
   0.91053742  0.82186383  0.13659111
   0.92341929  0.85345215  0.62292848
   0.08781167  0.16920702  0.35643427
   0.07570669  0.16117295  0.87088570
   0.09183845  0.41642266  0.36732682
   0.07361733  0.41322738  0.87604219
   0.08521918  0.66750473  0.36413708
   0.07149678  0.65795100  0.86410032
   0.10408386  0.93809889  0.36848403
   0.07920987  0.92167028  0.86069196
   0.33902009  0.17385307  0.36230516
   0.33045258  0.15775963  0.87178460
   0.34142997  0.42372279  0.36235929
   0.32565087  0.40425620  0.86142195
   0.33901052  0.66936194  0.36580164
   0.33782274  0.67079688  0.86675298
   0.31775318  0.91344544  0.37094939
   0.33439318  0.90042047  0.87562668
   0.58975914  0.16738759  0.36704981
   0.58707492  0.17392641  0.86656417
   0.58410617  0.40777083  0.35146406
   0.58994921  0.42630931  0.86669257
   0.58659076  0.66469456  0.34801116
   0.58135186  0.66976517  0.86063099
   0.59230279  0.91383417  0.38159798
   0.58446161  0.90943582  0.88707593
   0.83972996  0.16582937  0.38335959
   0.81853404  0.16165600  0.88108958
   0.82676693  0.41248435  0.36710900
   0.83313847  0.41198162  0.86432637
   0.82197216  0.67317949  0.38305206
   0.83734582  0.67464715  0.86046744
   0.83713192  0.92121705  0.36807865
   0.84700749  0.93116550  0.86568907
   0.16623007  0.08304823  0.01754596
   0.14902337  0.06391513  0.51455374
   0.16658069  0.30322197  0.03275188
   0.14135195  0.31329586  0.53541976
   0.16353761  0.56242992  0.03471348
   0.19311761  0.59466245  0.52469137
   0.14224494  0.81871538  0.02167378
   0.19064872  0.84479760  0.51822263
   0.43763616  0.06951317  0.02477674
   0.42600352  0.07536581  0.53084423
   0.40796633  0.33775441  0.02745309
   0.40597808  0.29791306  0.53778533
   0.41876507  0.61488927  0.00281763
   0.43350227  0.58249176  0.54221960
   0.44346118  0.85685921  0.03410364
   0.43839766  0.85780390  0.54053612
   0.65941839  0.11339636  0.02238993
   0.66743126  0.08332238  0.52137843
   0.67892855  0.34587878  0.01107413
   0.63587649  0.34179753  0.53953169
   0.71291742  0.61425223  0.01100025
   0.70360319  0.61390430  0.54512407
   0.63875730  0.83630140  0.02542622
   0.67789760  0.83958965  0.53503683
   0.92751992  0.08008694  0.02972996
   0.89290081  0.08991335  0.54135049
   0.94477248  0.34011953  0.03531419
   0.91318533  0.35927303  0.53274529
   0.90435632  0.58162237  0.04285306
   0.91369803  0.55913617  0.52407169
   0.91586767  0.85135336  0.02801605
   0.92080902  0.82585128  0.51337595
   0.08827961  0.17422557  0.46821048
   0.06300814  0.12856230  0.96767222
   0.08132099  0.40757546  0.48068557
   0.09151380  0.37731160  0.96383308
   0.09835585  0.68037247  0.46865843
   0.07607414  0.65565783  0.97133638
   0.10792762  0.91051106  0.48084853
   0.05949458  0.90896659  0.95970848
   0.31417745  0.13204951  0.45925106
   0.35197184  0.16746978  0.97671295
   0.32591610  0.41188521  0.46730050
   0.34206517  0.44039604  0.96286644
   0.34876884  0.65706037  0.46917816
   0.34146828  0.69195775  0.96667485
   0.33587790  0.91187347  0.47490800
   0.29823698  0.89018423  0.97696706
   0.60488087  0.16902288  0.47128181
   0.58709402  0.20154967  0.96931465
   0.58315281  0.43088989  0.46135912
   0.58840669  0.44423230  0.97168393
   0.61437135  0.68040810  0.45343433
   0.58931371  0.64903324  0.96386122
   0.59705365  0.92742325  0.48476046
   0.60594364  0.95581331  0.98400743
   0.85728779  0.20585401  0.47836445
   0.83871685  0.16558243  0.98414708
   0.76812230  0.37801760  0.45047373
   0.84087512  0.39273905  0.96423478
   0.86233122  0.67316711  0.47076762
   0.87264846  0.68698348  0.95700501
   0.85483700  0.90769535  0.46994736
   0.79201357  0.90821716  0.94912204
Direct configuration=   100
   0.00308073  0.99509954  0.25212108
   0.00270869  0.00717416  0.74062100
   0.00831463  0.25300073  0.25022408
   0.99298355  0.25100376  0.75969262
   0.98932210  0.49270656  0.27269008
   0.99126484  0.49038092  0.75263641
   0.00702370  0.75733984  0.25839351
   0.99927443  0.75726878  0.71554825
   0.25189685  0.00557946  0.22455195
   0.24939038  0.98870562  0.74406752
   0.24850744  0.25152446  0.25134296
   0.23850975  0.23600667  0.75704589
   0.26032850  0.50377509  0.24117126
   0.24424585  0.49363801  0.75351956
   0.25400928  0.74707425  0.24308372
   0.24135182  0.74602287  0.73895182
   0.49688843  0.99507739  0.26647154
   0.49854961  0.99417258  0.77524916
   0.49675749  0.24144545  0.23632301
   0.50482660  0.25095441  0.76789233
   0.50152643  0.49857748  0.22622310
   0.49361964  0.49783200  0.74086723
   0.51354119  0.75691223  0.24934122
   0.49552068  0.74850526  0.75955445
   0.75854356  0.01309136  0.25504311
   0.75134420  0.99974289  0.75507198
   0.74642181  0.25272832  0.23973888
   0.74358996  0.24686297  0.74837772
   0.74132839  0.50228932  0.24387096
   0.75077112  0.50146320  0.75894962
   0.75279441  0.75769443  0.23515691
   0.74868404  0.76008164  0.75613011
   0.16211007  0.07667871  0.11715209
   0.17270450  0.08680398  0.63216835
   0.16544951  0.33804638  0.12099126
   0.16134286  0.32825813  0.64098504
   0.17913369  0.59018580  0.12551824
   0.15444869  0.57527735  0.63511305
   0.17065229  0.83214702  0.12609829
   0.16115814  0.83333305  0.62671033
   0.41500159  0.07830706  0.13675817
   0.42175771  0.08389119  0.65425619
   0.41390601  0.33125607  0.12991795
   0.40717774  0.32019145  0.63960342
   0.42378663  0.58719751  0.13167039
   0.41065429  0.58224676  0.63450439
   0.42974031  0.83582068  0.15061808
   0.41751438  0.83853601  0.63863924
   0.66577111  0.08719107  0.14320312
   0.66534767  0.07870897  0.65174061
   0.65886309  0.33017526  0.12438774
   0.67133397  0.34025096  0.63454470
   0.67131536  0.58695092  0.12237452
   0.66766504  0.58549324  0.63612383
   0.68907869  0.85888922  0.13003052
   0.67275519  0.84006806  0.63940488
   0.91775236  0.08713366  0.13093210
   0.90867800  0.08186772  0.62357159
   0.91422052  0.33384415  0.14054682
   0.91071599  0.33139441  0.63097161
   0.92283172  0.58473852  0.14763939
   0.91242059  0.57824214  0.62279349
   0.92789075  0.83137690  0.13010013
   0.90921067  0.83174848  0.61996729
   0.08854035  0.16208240  0.36693824
   0.07636123  0.16451894  0.87067187
   0.09079258  0.41433944  0.36417544
   0.07837644  0.41059720  0.87539722
   0.08979731  0.66995492  0.36489494
   0.07380166  0.66510768  0.84846490
   0.09431694  0.92636557  0.35626960
   0.08598378  0.90981810  0.85417401
   0.33439762  0.16656589  0.36245848
   0.33419717  0.16940357  0.88269471
   0.34186102  0.42109655  0.36314067
   0.32664792  0.40686012  0.86922046
   0.34466390  0.66622416  0.36538778
   0.32104862  0.65639340  0.86073342
   0.33163395  0.91490913  0.35971482
   0.32341697  0.90085560  0.87127642
   0.57833605  0.16372060  0.37189676
   0.58209034  0.16859891  0.88220146
   0.58181788  0.41587796  0.36686735
   0.58560050  0.41999148  0.87630591
   0.58602815  0.65556326  0.35088057
   0.58471357  0.66225697  0.86944771
   0.59109339  0.92082140  0.36487357
   0.59181348  0.92551342  0.88111913
   0.84460746  0.17621452  0.36382985
   0.82420143  0.16579636  0.86963984
   0.82389577  0.41492971  0.37929441
   0.83211963  0.41917092  0.87345534
   0.82781654  0.67286127  0.38217458
   0.85098773  0.67903135  0.86997429
   0.83380112  0.92013838  0.35732167
   0.82960499  0.91838362  0.88218689
   0.17719125  0.09390861  0.01013966
   0.16039754  0.07104482  0.53033444
   0.18886743  0.32641167  0.01240001
   0.18342935  0.33150751  0.53732841
   0.14611492  0.56127415  0.02513055
   0.14788557  0.55816523  0.51983145
   0.15626695  0.82674677  0.01792028
   0.18058254  0.83085630  0.51502254
   0.42245619  0.06810680  0.02944098
   0.44467176  0.09846448  0.54717262
   0.40621114  0.31067508  0.02305869
   0.39841506  0.29951394  0.53250112
   0.39831009  0.59276066  0.03172248
   0.39750051  0.57022167  0.52444344
   0.44227594  0.85063293  0.04169049
   0.42285284  0.82165555  0.53317390
   0.65683011  0.09910992  0.04062993
   0.67793678  0.08523748  0.54355579
   0.62980463  0.34190188  0.02521847
   0.63606233  0.34987859  0.53875134
   0.70340321  0.59792966  0.01689770
   0.69221508  0.60136764  0.52687460
   0.66057007  0.84629942  0.02441777
   0.67485426  0.82472984  0.53296215
   0.88944689  0.07513144  0.02010969
   0.91137703  0.09809053  0.51712783
   0.95110221  0.35660028  0.04134464
   0.91767450  0.34955271  0.52337576
   0.90999272  0.57494472  0.03833617
   0.88679445  0.53809713  0.52468926
   0.91868714  0.85501845  0.03007224
   0.87268720  0.81629642  0.52404792
   0.06872080  0.14399316  0.47376741
   0.05564001  0.15568875  0.97903367
   0.09106807  0.40556171  0.47426039
   0.10779982  0.41220266  0.97633086
   0.06906223  0.65302938  0.47320493
   0.09595265  0.67276215  0.95371343
   0.09367941  0.91019714  0.45205946
   0.08415417  0.91481629  0.96292231
   0.30723780  0.14285911  0.46482947
   0.34292526  0.13993409  0.97941879
   0.35619052  0.41808002  0.47001227
   0.34620091  0.42595996  0.97319889
   0.33421695  0.66567145  0.47610813
   0.29640759  0.66487294  0.96875094
   0.34309231  0.94051180  0.46458504
   0.31207081  0.88721160  0.97722891
   0.59370737  0.19318060  0.47414999
   0.60431175  0.19605119  0.98368175
   0.56852166  0.44780894  0.45830261
   0.58088047  0.44978598  0.97544482
   0.58395533  0.64566247  0.45894108
   0.57449189  0.65233867  0.97637392
   0.60242997  0.92355539  0.47324550
   0.61748879  0.95305975  0.98090742
   0.85760402  0.19866358  0.47079601
   0.83061372  0.18137539  0.97653133
   0.77767011  0.37887787  0.47226090
   0.82032163  0.39474468  0.97869747
   0.84427103  0.64051864  0.47966609
   0.90447529  0.72189904  0.95664282
   0.83036204  0.92477262  0.46477340
   0.81449469  0.91115102  0.99355463
Direct configuration=   150
   0.00734716  0.01373762  0.24675889
   0.99339876  0.99923001  0.73809737
   0.00496603  0.25862699  0.24442927
   0.99723139  0.25018613  0.76007294
   0.98919171  0.49016708  0.28012555
   0.98773293  0.49541098  0.75520373
   0.00092256  0.74697080  0.24509411
   0.99596978  0.75249109  0.72851697
   0.24511090  0.99312405  0.24086757
   0.24888171  0.98534000  0.74283515
   0.25439171  0.25259991  0.25652163
   0.26077208  0.25720874  0.76285288
   0.25721965  0.50754935  0.24191768
   0.24029720  0.48897266  0.74760500
   0.24854431  0.74922221  0.24533716
   0.25025825  0.74670454  0.74413666
   0.50696435  0.00265875  0.26553318
   0.49877250  0.99848407  0.76598996
   0.49991305  0.24969000  0.24875240
   0.49473252  0.24556367  0.76992276
   0.50041971  0.49972613  0.21694011
   0.49751949  0.50670490  0.73384335
   0.51142112  0.75430391  0.25263232
   0.48728984  0.73780905  0.76293227
   0.75323183  0.00376774  0.25869068
   0.74770098  0.99783955  0.76113183
   0.74937254  0.25033723  0.24218909
   0.74026438  0.24862641  0.74662112
   0.75411190  0.51088326  0.26043201
   0.75197782  0.50840280  0.76067028
   0.76057869  0.75417376  0.24636675
   0.74415422  0.74748347  0.75184334
   0.16553616  0.07860629  0.11872677
   0.16998486  0.08189668  0.63862758
   0.17089913  0.33804398  0.13389870
   0.16409961  0.33001238  0.62971139
   0.19534798  0.59467903  0.12016884
   0.16089650  0.56911467  0.64267574
   0.16415600  0.82484491  0.13449199
   0.17632993  0.82857874  0.60576085
   0.42396524  0.07766896  0.13209526
   0.41622918  0.08245319  0.65106411
   0.41986993  0.32678685  0.11890404
   0.41377857  0.33920577  0.63860729
   0.42357996  0.59132686  0.13016475
   0.41605394  0.58324441  0.62591771
   0.42840191  0.84071972  0.13410845
   0.42540595  0.83302858  0.64226020
   0.67476343  0.08316534  0.14033835
   0.66023944  0.08499725  0.64614169
   0.67672882  0.34667957  0.13696572
   0.65160024  0.33088249  0.63929973
   0.66616609  0.58386377  0.12730521
   0.66403241  0.58612138  0.63555988
   0.66897325  0.83024266  0.13763129
   0.66409624  0.84129193  0.63975003
   0.91887781  0.09787039  0.13539302
   0.90878875  0.07879196  0.63239051
   0.92161660  0.34032454  0.13376217
   0.90632702  0.32697561  0.63894266
   0.93452149  0.57599665  0.13722192
   0.91527995  0.58071806  0.62331640
   0.92928684  0.84538133  0.12605477
   0.89855093  0.82553261  0.63180790
   0.08290046  0.16329240  0.36925486
   0.07496538  0.16151769  0.86107143
   0.08928681  0.42110939  0.36507989
   0.08155337  0.41371012  0.87209135
   0.08626225  0.66305780  0.37383833
   0.08348358  0.67181669  0.84430860
   0.07930738  0.90598958  0.36199746
   0.08508013  0.91156412  0.84328106
   0.32631273  0.15692036  0.35326361
   0.33463161  0.17065336  0.87582042
   0.33246186  0.40904038  0.35599407
   0.33523033  0.42185588  0.87179950
   0.33911315  0.66453187  0.36742488
   0.32006622  0.65639675  0.86545900
   0.33759524  0.91437470  0.36324795
   0.32736852  0.91446750  0.86500627
   0.57662003  0.17036870  0.37158233
   0.58125608  0.15940626  0.89243128
   0.58008244  0.42245810  0.37087558
   0.57904357  0.41319356  0.86764190
   0.59106233  0.66736586  0.35993210
   0.57704013  0.65947034  0.86664522
   0.59273575  0.92618627  0.37351766
   0.58271835  0.91806831  0.87623978
   0.83878726  0.18573493  0.36021545
   0.84024284  0.17533815  0.86384630
   0.81999968  0.41651467  0.37617502
   0.82383303  0.41563386  0.87145946
   0.84718930  0.67067521  0.35056703
   0.83914694  0.66944105  0.86336438
   0.83570398  0.91853246  0.35866203
   0.82706184  0.90979418  0.86980622
   0.15887228  0.10340466  0.02426827
   0.18457063  0.11620499  0.54067285
   0.19895418  0.34349790  0.03057339
   0.21778269  0.34794586  0.54597167
   0.12550578  0.57072276  0.05310723
   0.11945035  0.53663721  0.54164117
   0.15718207  0.82668018  0.02554354
   0.15882472  0.84848654  0.50221065
   0.45445498  0.08699470  0.02639984
   0.43783108  0.08606414  0.55237707
   0.38814389  0.27379476  0.02818260
   0.42460127  0.31645296  0.53493923
   0.42246451  0.59541003  0.02695092
   0.40681263  0.62313565  0.53119390
   0.38689260  0.79089484  0.04294579
   0.41673082  0.84602746  0.53875899
   0.65798192  0.04240981  0.04729634
   0.61905789  0.06383550  0.55453975
   0.67973710  0.38205063  0.04295019
   0.63809117  0.35174265  0.53727727
   0.69295743  0.59465525  0.02304845
   0.68603627  0.59948595  0.53055277
   0.67200740  0.82558318  0.02920372
   0.65297345  0.82029455  0.53258660
   0.89303436  0.10976110  0.03192212
   0.89845086  0.09156486  0.52847445
   0.91382558  0.37577448  0.04284532
   0.92411451  0.33306687  0.53054881
   0.93174450  0.54217618  0.04112539
   0.89392527  0.54050619  0.52889067
   0.92792791  0.83494399  0.02467834
   0.89921760  0.83316819  0.52790914
   0.07809738  0.18088819  0.47052714
   0.05712280  0.15083935  0.96920564
   0.11538975  0.41246105  0.45764136
   0.08004359  0.40260423  0.97729345
   0.09280116  0.67059539  0.48296530
   0.05207426  0.67756883  0.94243200
   0.08670662  0.94536369  0.46485811
   0.11095996  0.93517166  0.95439898
   0.35191588  0.14794224  0.45149650
   0.28795780  0.11969023  0.96035877
   0.36818991  0.43602330  0.45697478
   0.36373144  0.40645416  0.96403909
   0.29703133  0.66718822  0.45977225
   0.27285095  0.62743730  0.95499385
   0.30982430  0.89393172  0.46701858
   0.32490139  0.91638604  0.97106093
   0.60111160  0.21577687  0.46818224
   0.62283461  0.18091464  0.98914631
   0.56753807  0.45111641  0.45959420
   0.55561952  0.41143754  0.97191539
   0.55458964  0.63321659  0.45351454
   0.57766867  0.64876864  0.97291303
   0.59738207  0.90338321  0.48058836
   0.55868864  0.88053387  0.97287970
   0.80125976  0.17715751  0.46009079
   0.83166986  0.19971959  0.96614520
   0.81316126  0.39949281  0.48182193
   0.80654845  0.42171837  0.97944318
   0.85708761  0.64779270  0.45285985
   0.84124361  0.66113787  0.97389969
   0.85238221  0.93196689  0.46507787
   0.86106671  0.93436694  0.96754311
Direct configuration=   200
   0.99981918  0.01165323  0.23302175
   0.99161876  0.99028491  0.73770043
   0.00422578  0.26235627  0.24126033
   0.00538156  0.24976791  0.73611761
   0.99952308  0.49620911  0.28467985
   0.99924844  0.50446934  0.75636503
   0.00724036  0.73761809  0.22001911
   0.99567776  0.73915871  0.74743658
   0.24847244  0.98252466  0.25700391
   0.24798344  0.00224348  0.72970951
   0.25256907  0.24327202  0.25072531
   0.26042536  0.26294844  0.76377496
   0.25208049  0.50173023  0.25112799
   0.24832885  0.49831877  0.75166018
   0.25604449  0.75264738  0.25331194
   0.25688997  0.74211591  0.74682108
   0.50943141  0.00936598  0.25206846
   0.49693649  0.99823841  0.75662207
   0.50162645  0.25788955  0.26629736
   0.49008337  0.24428500  0.76311115
   0.49940768  0.49810232  0.23458884
   0.50296595  0.50500052  0.74023353
   0.49806807  0.74958401  0.25801808
   0.49309322  0.74361294  0.75839553
   0.75258179  0.99420888  0.25590401
   0.74083794  0.00101514  0.76357732
   0.75172148  0.25690767  0.24604831
   0.74061966  0.25247987  0.74791567
   0.75314026  0.49732608  0.26626894
   0.73927478  0.49889118  0.74613836
   0.76074851  0.75120125  0.25792286
   0.73863803  0.74033127  0.75948272
   0.17170463  0.09290841  0.13668224
   0.16172639  0.07684427  0.62723333
   0.17982921  0.33377472  0.14433560
   0.17169221  0.32875059  0.62228977
   0.19031379  0.59927472  0.11652841
   0.16178293  0.57468123  0.62489070
   0.16447844  0.82838225  0.12710904
   0.17976343  0.82851800  0.60074698
   0.42964276  0.08602502  0.13498847
   0.42024646  0.08729329  0.62893479
   0.42254963  0.32637640  0.11711432
   0.42149390  0.34326056  0.62898470
   0.41786629  0.59128452  0.11967157
   0.41120316  0.58430373  0.61599961
   0.41704065  0.83200356  0.11924257
   0.41360669  0.82663330  0.64352398
   0.66741020  0.07617518  0.12661451
   0.65314418  0.08480319  0.62604653
   0.68247401  0.35445084  0.14141418
   0.64534346  0.32618454  0.64091857
   0.68806910  0.59173053  0.12793655
   0.66704364  0.58320208  0.62588947
   0.66066593  0.81322462  0.14168708
   0.64596385  0.81871230  0.64004019
   0.92082745  0.09620469  0.13192811
   0.91132511  0.08623886  0.64512958
   0.92477226  0.35002860  0.13212391
   0.91286281  0.33549198  0.64528330
   0.93036449  0.57517323  0.12461033
   0.90452441  0.58039371  0.63680195
   0.91567775  0.84313385  0.12697703
   0.90861339  0.83008130  0.62667815
   0.08340721  0.18363974  0.36194990
   0.08743662  0.16102523  0.86416293
   0.09045789  0.42262935  0.37497784
   0.07610290  0.41517406  0.86380192
   0.08272717  0.65625378  0.36739969
   0.07995180  0.66926980  0.86545181
   0.08183708  0.91440997  0.38121168
   0.07589691  0.91904074  0.85100637
   0.32787747  0.15270298  0.36073428
   0.32794928  0.16212284  0.87494434
   0.33967759  0.42455723  0.36010481
   0.34277019  0.42939006  0.86154664
   0.32968784  0.66615398  0.37486769
   0.33288197  0.66533514  0.87611450
   0.33362593  0.91173442  0.37072053
   0.33302415  0.91754132  0.86777445
   0.59268098  0.18157776  0.36925153
   0.58407286  0.16476773  0.87174826
   0.57911802  0.42464162  0.35819578
   0.57784515  0.41900022  0.86540996
   0.59153978  0.67494256  0.37576249
   0.57422454  0.66156515  0.86028977
   0.59076477  0.91887134  0.39201317
   0.57038322  0.89631030  0.88350147
   0.82423585  0.17350623  0.38323570
   0.83027072  0.16541721  0.88103704
   0.82968269  0.41318639  0.37726500
   0.82424187  0.41219426  0.86609224
   0.85067107  0.67014480  0.35036910
   0.82240575  0.66020663  0.86423399
   0.84991749  0.92478229  0.37270701
   0.83716979  0.91630335  0.85235500
   0.14241038  0.10059867  0.03215656
   0.17180759  0.11395069  0.52310538
   0.19041595  0.33612994  0.04429620
   0.18058753  0.32243250  0.51162712
   0.13498525  0.57876519  0.03210334
   0.16285278  0.58227600  0.52618889
   0.21329410  0.86604424  0.03873565
   0.13277838  0.84293529  0.52277982
   0.44457444  0.10646467  0.03201427
   0.43344001  0.07015733  0.52678525
   0.38208099  0.29264466  0.02306583
   0.38562082  0.32724244  0.52871244
   0.39893239  0.62488737  0.02262145
   0.40797813  0.60224712  0.51776585
   0.40589110  0.81179062  0.01560848
   0.44247865  0.83138855  0.54469387
   0.67385073  0.05916380  0.01413469
   0.67064546  0.06798629  0.52627622
   0.62177204  0.32294197  0.05830724
   0.62982618  0.34402279  0.54308611
   0.66410668  0.56620170  0.02958102
   0.68408929  0.61221345  0.52754888
   0.65406445  0.83694471  0.04180427
   0.67657623  0.82096230  0.53977568
   0.89610143  0.08951514  0.03516227
   0.90866940  0.09455620  0.53769736
   0.92860947  0.34874655  0.02464053
   0.93140900  0.34674534  0.53881364
   0.89356448  0.54945198  0.02949162
   0.93590391  0.58057229  0.53675914
   0.89522014  0.83325839  0.01986686
   0.93819422  0.84944358  0.51652194
   0.07747176  0.16764894  0.46616020
   0.06484010  0.17356664  0.96184139
   0.08373896  0.37884571  0.47384796
   0.08508316  0.40554584  0.97058378
   0.12316525  0.70742167  0.45285277
   0.08705135  0.68152554  0.97285038
   0.08249403  0.96034097  0.47958880
   0.05272745  0.89329008  0.95597334
   0.33079546  0.14054597  0.46768890
   0.30063350  0.13171269  0.97732020
   0.36947677  0.45573250  0.45845804
   0.35955887  0.46565144  0.96423111
   0.30960208  0.66614000  0.47517038
   0.28194753  0.64595534  0.98215385
   0.30223101  0.88428584  0.47312738
   0.36466066  0.93063859  0.97070595
   0.60877013  0.16717845  0.47200568
   0.60223420  0.14969927  0.97465914
   0.56708190  0.42639068  0.46866821
   0.53470254  0.42325527  0.95422288
   0.56834181  0.67987075  0.47654721
   0.55959731  0.67281730  0.96495923
   0.59138590  0.89285474  0.49252585
   0.53928812  0.90054958  0.98596600
   0.82222729  0.17312591  0.48969522
   0.81920819  0.17414329  0.98786905
   0.79889961  0.38872766  0.47806145
   0.77309364  0.37977277  0.95441508
   0.87990514  0.70992437  0.43988553
   0.81231446  0.64456158  0.97144664
   0.85245074  0.93572952  0.48099800
   0.83406176  0.90597392  0.95626137
Direct configuration=   250
   0.99886554  0.99711541  0.23566597
   0.99916324  0.99699006  0.74471438
   0.00037039  0.25621080  0.24702085
   0.00755359  0.25346561  0.72874814
   0.00386692  0.50221154  0.26480905
   0.00226836  0.50252440  0.75701659
   0.00251911  0.74279842  0.21159725
   0.99310841  0.74462265  0.76591259
   0.25268011  0.99639490  0.26434774
   0.24598918  0.00523351  0.73203352
   0.25453086  0.24861997  0.25381411
   0.24533093  0.25111287  0.75785338
   0.25100408  0.49636595  0.25596243
   0.25565482  0.50994444  0.74157640
   0.26023161  0.75117333  0.24978977
   0.24352666  0.74750704  0.75026389
   0.50423264  0.00343340  0.24584175
   0.49228040  0.99376230  0.73814191
   0.50063159  0.25054988  0.26914704
   0.49453484  0.24803624  0.74570803
   0.50859565  0.51419610  0.24813789
   0.50126730  0.50185758  0.73689585
   0.49126971  0.74757040  0.26273333
   0.49846045  0.75014876  0.74590183
   0.74924347  0.99057027  0.26276914
   0.73606083  0.99749672  0.76132992
   0.75471519  0.25538686  0.24702410
   0.74975888  0.25070363  0.74475777
   0.75266119  0.49689580  0.25746706
   0.73012780  0.48224229  0.73181270
   0.75226089  0.74907955  0.26096407
   0.74512666  0.74953774  0.75723049
   0.16797300  0.08043590  0.13693204
   0.15533957  0.08567012  0.60570672
   0.17459804  0.33757712  0.12692344
   0.17683002  0.33471163  0.63474622
   0.17014743  0.58690645  0.13004352
   0.16545994  0.59164000  0.63617970
   0.18625918  0.84888938  0.11405550
   0.16271170  0.83360560  0.63687935
   0.41849712  0.09499322  0.15273027
   0.41049856  0.08602015  0.62134483
   0.42579176  0.34336753  0.14744787
   0.40805589  0.31926860  0.62955565
   0.41208508  0.57917852  0.13771884
   0.40739853  0.58040276  0.63341673
   0.41696039  0.83267864  0.14720234
   0.41144035  0.83034186  0.63006994
   0.66453114  0.07599795  0.14000203
   0.66278443  0.07931843  0.63331406
   0.65998513  0.32246276  0.12387641
   0.66386424  0.33030776  0.62714078
   0.68502317  0.58434956  0.14841861
   0.66285973  0.58017316  0.62035200
   0.67102005  0.83730996  0.14554237
   0.66399219  0.82814975  0.63417150
   0.90804588  0.08261663  0.12815131
   0.90318099  0.08428600  0.62794049
   0.92310932  0.34093504  0.14914175
   0.92220614  0.34180333  0.63414494
   0.91822332  0.57294884  0.13126612
   0.91018206  0.57586038  0.64703333
   0.91605911  0.83270049  0.12895100
   0.92117916  0.82398317  0.61840736
   0.08834324  0.18437503  0.36170765
   0.09637479  0.17557883  0.86851920
   0.08673457  0.41512993  0.37142649
   0.08791528  0.41479263  0.85377253
   0.09653619  0.68370001  0.35342369
   0.09099978  0.66392648  0.87563838
   0.09445552  0.92461235  0.36910805
   0.07925265  0.90816031  0.86162888
   0.33819986  0.16649563  0.38766751
   0.32424402  0.15599110  0.85378135
   0.35517663  0.43803594  0.37409449
   0.33677211  0.42734280  0.86108149
   0.33094527  0.66690398  0.36888887
   0.32937280  0.66059696  0.88617343
   0.34650517  0.91672024  0.36580813
   0.32751292  0.91417145  0.85890609
   0.59706783  0.17180691  0.36371790
   0.57783512  0.16635779  0.84803461
   0.58305765  0.42273716  0.36808393
   0.56997052  0.41999554  0.86949285
   0.58471637  0.66968772  0.37424746
   0.57757537  0.66084562  0.87017232
   0.57938693  0.91084423  0.36301370
   0.58180726  0.91195403  0.87317595
   0.82743425  0.15456829  0.36678153
   0.81583505  0.15228544  0.87801457
   0.84655698  0.41126931  0.38762512
   0.82501723  0.41505650  0.86570667
   0.84177346  0.66730846  0.37485197
   0.82394903  0.66321139  0.87163773
   0.84753589  0.92831622  0.37075641
   0.82223490  0.91545539  0.86351787
   0.16539835  0.07906230  0.02340708
   0.20305165  0.13571463  0.51565769
   0.19032585  0.35054210  0.01515142
   0.17101098  0.30899058  0.52870180
   0.10952425  0.56981054  0.05279394
   0.13898431  0.58387660  0.52998999
   0.18766666  0.84167354  0.00733285
   0.14020083  0.82269279  0.52403822
   0.42070029  0.09311936  0.04868867
   0.42758583  0.08589730  0.50760946
   0.41613380  0.35010466  0.03911157
   0.39755999  0.33317688  0.52837057
   0.40516679  0.60784016  0.04240750
   0.40894305  0.60633113  0.52728388
   0.40475680  0.79464552  0.04821196
   0.40392069  0.85498204  0.52670872
   0.69080949  0.09150038  0.03732976
   0.66378202  0.05377984  0.52332324
   0.67792447  0.35603670  0.01923339
   0.64568253  0.28895520  0.53203745
   0.68376574  0.57954082  0.04124350
   0.67963663  0.57754597  0.51538871
   0.65772239  0.81007800  0.04239071
   0.67817831  0.80954115  0.53503831
   0.88667101  0.09003017  0.01459922
   0.85025664  0.07006923  0.54035652
   0.93230938  0.37746922  0.04901432
   0.90444702  0.35350491  0.53373170
   0.93272798  0.58122007  0.02123723
   0.90297642  0.59516716  0.53984239
   0.91922623  0.85748740  0.01557506
   0.94549561  0.80519211  0.51931675
   0.03564085  0.14897296  0.45386085
   0.08589077  0.16604549  0.97532609
   0.10838560  0.40851344  0.48187967
   0.10665989  0.40105047  0.95877339
   0.07283838  0.69501304  0.45569263
   0.10348239  0.68927946  0.97899927
   0.11841311  0.97098543  0.46465568
   0.09661004  0.93975978  0.95419738
   0.35517141  0.18080588  0.49452722
   0.34920052  0.16572278  0.95802088
   0.35005847  0.45594492  0.47785767
   0.35707246  0.45229527  0.96597952