unknown system                          
           1
    12.450170    0.000000    0.000000
    -6.225111   10.782148    0.000000
     0.000000    0.000000    8.997517
   Mg   O    H 
  32  64  64
Direct configuration=    50
   0.00230703  0.98947489  0.25365205
   0.99546574  0.99260048  0.75774939
   0.99079101  0.25466427  0.27468889
   0.00531661  0.25142640  0.75286547
   0.99347785  0.50126987  0.24343883
   0.99776964  0.49583901  0.74071605
   0.99466829  0.75545290  0.25507592
   0.99106567  0.73746452  0.74104015
   0.25279306  0.99818825  0.24411446
   0.25167061  0.00099789  0.75670921
   0.24624552  0.24749035  0.22969485
   0.25540065  0.25640068  0.74659058
   0.24809732  0.50189302  0.25115725
   0.25467875  0.50245360  0.76035621
   0.25676777  0.76005280  0.24766024
   0.24067618  0.73991734  0.75329043
   0.49328118  0.99099548  0.25437477
   0.48842547  0.99911089  0.74868644
   0.49638171  0.24561947  0.27328750
   0.50736323  0.25112758  0.74467918
   0.49835900  0.49604728  0.24978306
   0.48923695  0.49878273  0.75322732
   0.49013079  0.73227179  0.24860650
   0.51034605  0.76424718  0.73091809
   0.75857203  0.00891714  0.25291053
   0.75279314  0.00341773  0.74118772
   0.73963289  0.25045146  0.24756112
   0.75455146  0.24951784  0.75777176
   0.76059586  0.51320253  0.26045046
   0.74497494  0.49784605  0.74331539
   0.74521504  0.74761412  0.23727414
   0.74860079  0.74849194  0.75368157
   0.16434114  0.08019396  0.12638144
   0.16063396  0.08638763  0.63333193
   0.17063492  0.33455899  0.13333230
   0.19070265  0.35152040  0.63103001
   0.16200952  0.59326295  0.14569717
   0.16532510  0.59218684  0.63093427
   0.17153985  0.83236995  0.12071333
   0.17844126  0.83633838  0.63866829
   0.41695427  0.08367792  0.14596746
   0.40660439  0.08614975  0.62719080
   0.42432078  0.33703048  0.13508533
   0.42459748  0.34121359  0.63329580
   0.40602685  0.57516372  0.12097643
   0.41572260  0.59123437  0.62200955
   0.42304056  0.84392446  0.13330906
   0.41699835  0.84586163  0.63387897
   0.65225511  0.06487671  0.15605260
   0.66154895  0.07990118  0.62530514
   0.65484529  0.32568367  0.12961483
   0.67306983  0.33041703  0.62382766
   0.65457462  0.58833362  0.11568225
   0.67755150  0.58467448  0.62248867
   0.66864503  0.84320767  0.13030851
   0.68913908  0.85027324  0.62580711
   0.91764768  0.07997225  0.14326370
   0.93515170  0.09371699  0.63144881
   0.90696417  0.33370711  0.13900280
   0.93400129  0.33797664  0.62672241
   0.90838504  0.58894937  0.13705044
   0.90969200  0.57520255  0.62338922
   0.91538804  0.83116681  0.13993659
   0.92579469  0.83414609  0.62048362
   0.08425459  0.16128039  0.34828816
   0.09515122  0.16655077  0.88104909
   0.09225376  0.41971124  0.36662089
   0.08143198  0.41900709  0.86190491
   0.07661540  0.66736035  0.35645014
   0.07414097  0.65734558  0.87059133
   0.09755491  0.92281443  0.37226334
   0.07892726  0.90446170  0.85963930
   0.33011078  0.15371612  0.36170100
   0.33537755  0.15878972  0.86641810
   0.33765463  0.42699848  0.37683600
   0.33973716  0.42222401  0.86995970
   0.33820615  0.67643608  0.36817961
   0.32920230  0.65457718  0.86528662
   0.33435244  0.91286067  0.37277513
   0.34339157  0.91083597  0.87983221
   0.58251987  0.16443127  0.37929357
   0.59412201  0.17766778  0.86287965
   0.60018281  0.43240525  0.35790431
   0.57956997  0.41607117  0.85777061
   0.58168926  0.66215526  0.36201158
   0.59104752  0.66805424  0.87152601
   0.57770496  0.90954738  0.38333403
   0.57955173  0.91544917  0.86982718
   0.83321905  0.16850023  0.36899166
   0.82346695  0.14667720  0.86286823
   0.82788755  0.40863367  0.38316202
   0.83984147  0.41193742  0.87662026
   0.83107683  0.66988243  0.36833606
   0.83427761  0.66178467  0.85714067
   0.83704685  0.91456265  0.36791716
   0.82616645  0.91623041  0.87770498
   0.13510859  0.05689888  0.02943897
   0.16067874  0.07273200  0.53362316
   0.16811297  0.35568868  0.03588407
   0.13186332  0.32501224  0.54814964
   0.16838110  0.59055714  0.03622086
   0.19332711  0.60315024  0.53115754
   0.17209196  0.81309614  0.01715224
   0.14428278  0.82168174  0.54277558
   0.41739665  0.11173524  0.04686111
   0.40124892  0.05578946  0.53109621
   0.44172211  0.33602507  0.03235422
   0.41546901  0.34033800  0.52257194
   0.40894634  0.59306436  0.00819020
   0.40089730  0.54774294  0.52719841
   0.44374781  0.86887026  0.02992881
   0.41788970  0.84961337  0.51705038
   0.64967065  0.06866256  0.04734217
   0.67688881  0.09767154  0.52028671
   0.62532050  0.30723000  0.02897370
   0.61903016  0.32214894  0.53977449
   0.66172329  0.58769319  0.00809662
   0.67930222  0.62727194  0.53459442
   0.68156903  0.81298097  0.02756244
   0.65786277  0.85956744  0.52697910
   0.93306206  0.08835573  0.03981395
   0.93477695  0.06756026  0.53094251
   0.89432587  0.33153410  0.03314753
   0.89378208  0.34032283  0.53556879
   0.90920156  0.56945007  0.03373661
   0.90845131  0.54473839  0.52239246
   0.94465055  0.84301910  0.03974289
   0.89546135  0.84943617  0.52761544
   0.10249708  0.17548325  0.45135402
   0.08303765  0.20370697  0.97255655
   0.07264262  0.43705068  0.47042621
   0.05603707  0.42110541  0.97580582
   0.06689687  0.65999880  0.46448209
   0.06004348  0.64006298  0.97649669
   0.07957655  0.91157503  0.47785633
   0.10220434  0.89351214  0.96412952
   0.33086528  0.14690419  0.47791273
   0.30359984  0.14357127  0.97157415
   0.28329306  0.37689211  0.46958938
   0.34694871  0.40822023  0.97307436
   0.36468673  0.67078892  0.46425178
   0.36521756  0.70718464  0.94799795
   0.30741137  0.90001517  0.47978623
   0.34679442  0.91834651  0.98766620
   0.57749357  0.15810269  0.49188326
   0.57350048  0.14481322  0.95842605
   0.58294406  0.44460829  0.45941972
   0.59480369  0.43720648  0.95950052
   0.55602325  0.66122115  0.46359219
   0.55762091  0.65403776  0.97314932
   0.58420708  0.94678990  0.48052985
   0.60920815  0.91198135  0.97190982
   0.84687044  0.15777210  0.47756242
   0.84499978  0.15651874  0.97228612
   0.77927657  0.38734822  0.47614653
   0.78838896  0.41295238  0.95495467
   0.83552860  0.67106596  0.48404553
   0.83825977  0.67327054  0.96827338
   0.79405538  0.88373975  0.45943098
   0.81219974  0.91583444  0.98302986
Direct configuration=   100
   0.00450554  0.99988049  0.26121367
   0.00109167  0.99511024  0.76616271
   0.00330283  0.25503282  0.26126539
   0.01181786  0.24806528  0.75700454
   0.99225040  0.50443593  0.24913154
   0.99927399  0.49898629  0.73892600
   0.00355074  0.75444258  0.25578089
   0.99798414  0.73762536  0.73026473
   0.24993921  0.99376756  0.23823589
   0.24242880  0.99208994  0.75322312
   0.24841078  0.24246116  0.22210768
   0.25958093  0.24923662  0.74634546
   0.24767997  0.50536038  0.25673512
   0.25046334  0.50460335  0.75895079
   0.24994026  0.75336426  0.24980015
   0.25021210  0.74754351  0.76590431
   0.49971914  0.99910846  0.28428994
   0.49774038  0.00879787  0.75051032
   0.50078859  0.25149485  0.28200637
   0.49938488  0.25134174  0.74504015
   0.49604946  0.49629236  0.23891769
   0.50938457  0.51297958  0.74029858
   0.49880096  0.74770893  0.23823709
   0.50960747  0.76566314  0.72350853
   0.75147246  0.99445161  0.26332275
   0.75512959  0.00247216  0.73391560
   0.73146130  0.24246233  0.25460438
   0.76183668  0.24404786  0.75509442
   0.75011996  0.50594007  0.25366946
   0.74620668  0.49508184  0.73163992
   0.74285794  0.75225700  0.24153063
   0.75662731  0.75088301  0.75316391
   0.16786095  0.06773126  0.11758300
   0.16438942  0.08738985  0.64808664
   0.15810479  0.34462297  0.12879272
   0.18788343  0.35071605  0.62862256
   0.16527075  0.58796658  0.12999798
   0.16488962  0.57994749  0.62456453
   0.16487952  0.83704865  0.12865580
   0.16952760  0.82961773  0.63671982
   0.42680269  0.08534329  0.13859131
   0.41167447  0.08671108  0.63911175
   0.41382780  0.32361420  0.14371913
   0.42661987  0.33897617  0.63403517
   0.40422060  0.57682100  0.13125950
   0.42608531  0.59923528  0.62333923
   0.41065691  0.81168647  0.12392399
   0.41384380  0.83447421  0.63615457
   0.66881890  0.08902911  0.14193639
   0.66667102  0.08609588  0.63464006
   0.65524786  0.33020433  0.14251144
   0.67361272  0.33210773  0.62620364
   0.66186847  0.59225847  0.12397516
   0.66507944  0.59473913  0.62374837
   0.65693253  0.83234346  0.13027145
   0.68138375  0.83955668  0.61157099
   0.92224712  0.08655560  0.14114033
   0.93082462  0.08926330  0.64020080
   0.90263722  0.33328979  0.14744529
   0.92317673  0.32854951  0.63224936
   0.90842475  0.58380174  0.12930312
   0.91095407  0.56814011  0.62532244
   0.91608690  0.83211972  0.12399289
   0.92455563  0.83710091  0.63586663
   0.09068027  0.17358184  0.36648999
   0.09323204  0.17082024  0.87271421
   0.07967068  0.42298178  0.37838597
   0.08272504  0.41145739  0.86405165
   0.07578921  0.66985000  0.36579459
   0.07289027  0.65480452  0.85688531
   0.09118860  0.91340079  0.36745791
   0.07440756  0.89867189  0.86628965
   0.32228588  0.16835464  0.37182136
   0.34257275  0.16724292  0.87101813
   0.33918042  0.42536647  0.36825567
   0.32276060  0.40803480  0.87617082
   0.32824052  0.66733920  0.36619308
   0.34842501  0.68387077  0.87291033
   0.32778461  0.91560434  0.37407579
   0.32712340  0.90738280  0.87102655
   0.57627497  0.16070716  0.38141325
   0.58251228  0.16648692  0.86347010
   0.58671853  0.42108245  0.37694139
   0.58578453  0.42050318  0.85647222
   0.57727158  0.65767075  0.35274987
   0.57944117  0.67180811  0.84552666
   0.58659995  0.90160057  0.38726963
   0.58281274  0.91763800  0.85512446
   0.81692295  0.16174476  0.39294448
   0.84680631  0.17387233  0.86831787
   0.82622677  0.41422402  0.37246698
   0.82714793  0.40533983  0.87041873
   0.83380804  0.68130503  0.36217757
   0.82565732  0.65664800  0.85513728
   0.83425015  0.91068110  0.36954123
   0.83212216  0.91324640  0.85629687
   0.14464620  0.05560808  0.00394374
   0.17338023  0.06497218  0.53702461
   0.16885721  0.36074737  0.01681842
   0.17996350  0.37617624  0.53042619
   0.19224577  0.59506167  0.02673874
   0.19307992  0.61422516  0.52321977
   0.18393185  0.80900089  0.03574191
   0.17006516  0.82940587  0.52820037
   0.40662438  0.07952425  0.03220332
   0.41032353  0.09434063  0.52237062
   0.43408559  0.32214647  0.03803288
   0.43282287  0.35427474  0.52764365
   0.36374754  0.56376322  0.03712882
   0.40661042  0.55747116  0.52044064
   0.45047343  0.86714380  0.03861095
   0.40150157  0.83051472  0.53338124
   0.65836439  0.04590660  0.04805502
   0.69911845  0.10611177  0.53201893
   0.63136085  0.30245141  0.03855350
   0.65766208  0.33511863  0.52194492
   0.66641857  0.62307899  0.02205266
   0.68301702  0.62677233  0.52094965
   0.65781961  0.81887696  0.02646635
   0.64206231  0.82828327  0.51501220
   0.96410231  0.11227373  0.04424588
   0.95552043  0.09558682  0.53553262
   0.91397492  0.34450299  0.03872841
   0.94566840  0.33488091  0.52666810
   0.87983274  0.55609103  0.02774014
   0.89039367  0.54356773  0.52238877
   0.89569056  0.84102208  0.02193115
   0.91035177  0.83412982  0.52928635
   0.11926517  0.17801620  0.47193647
   0.14114992  0.21159805  0.96298956
   0.09174541  0.45893097  0.47600207
   0.06553436  0.40499017  0.96861414
   0.06641994  0.64448745  0.47064392
   0.04612647  0.63809829  0.96110169
   0.08225005  0.90359918  0.47762624
   0.07677420  0.88975242  0.97307479
   0.31397923  0.18328202  0.47633858
   0.32622692  0.17555066  0.97574151
   0.30992802  0.39317242  0.45783304
   0.36472969  0.42129768  0.97298981
   0.35861746  0.67130992  0.47358720
   0.35256242  0.70512460  0.98135664
   0.32683767  0.90957476  0.48279590
   0.33092182  0.93142369  0.97469621
   0.59484633  0.17055641  0.48942546
   0.58840356  0.15432348  0.97225460
   0.62540716  0.45854934  0.47649714
   0.62556775  0.44274653  0.95752314
   0.56657932  0.65510207  0.46099897
   0.52503803  0.65356101  0.92942042
   0.57659670  0.93207810  0.48352744
   0.59041911  0.89507578  0.95420768
   0.85413435  0.16888953  0.48961522
   0.83550582  0.15626522  0.97582295
   0.83195865  0.38132073  0.47149515
   0.80935401  0.38192374  0.97811757
   0.84845889  0.68989793  0.46753903
   0.84075566  0.65714695  0.96212853
   0.81098454  0.90663940  0.47939375
   0.83236969  0.93395070  0.96219187
Direct configuration=   150
   0.00312709  0.01013716  0.25949993
   0.01333817  0.00585382  0.76613161
   0.00426002  0.25347005  0.24244620
   0.01820618  0.25361042  0.75673750
   0.99638700  0.50069113  0.25032470
   0.99585267  0.48400916  0.74863063
   0.99507308  0.74521305  0.23223436
   0.00074481  0.74483899  0.73281001
   0.25466204  0.00468674  0.24680164
   0.23902365  0.98974609  0.75282031
   0.24058758  0.24407305  0.23456797
   0.26363685  0.25198861  0.75083543
   0.24123069  0.49882675  0.26285703
   0.26101969  0.51486766  0.75874522
   0.23316958  0.73201049  0.25318241
   0.26135646  0.75722243  0.76818044
   0.51181113  0.00218621  0.28827498
   0.50849550  0.00500447  0.74648807
   0.49426991  0.25404543  0.27249157
   0.50237428  0.25441568  0.76086945
   0.49279281  0.49911356  0.23218050
   0.51367094  0.51175898  0.72762729
   0.50057848  0.75379797  0.24177033
   0.50101525  0.75415432  0.72618267
   0.74632936  0.99356234  0.26475522
   0.76020288  0.00296580  0.73733861
   0.75113579  0.24881582  0.26563341
   0.75571022  0.24684444  0.74716993
   0.73515163  0.49736124  0.24101842
   0.75204903  0.49354746  0.73565296
   0.75411411  0.75715554  0.25571884
   0.75797187  0.75495408  0.74288807
   0.16994864  0.07999368  0.13585505
   0.17412924  0.07255608  0.64129396
   0.15553968  0.33811648  0.13675646
   0.16495908  0.32762610  0.63284080
   0.16004076  0.57466189  0.12839327
   0.17292027  0.57121223  0.63487209
   0.16212277  0.82276275  0.14124444
   0.15503707  0.82068431  0.61817527
   0.42465833  0.07365028  0.15173216
   0.41324351  0.07851150  0.64406291
   0.41991899  0.32392677  0.12955259
   0.42006458  0.33851267  0.62973234
   0.41438075  0.58193887  0.13539026
   0.41688739  0.58289296  0.62031589
   0.39558934  0.81016860  0.13140126
   0.40591772  0.82966951  0.62539071
   0.67591410  0.08725531  0.13783483
   0.67421011  0.08499837  0.63967238
   0.65909404  0.33835322  0.15811051
   0.65790350  0.32415701  0.63710092
   0.66899942  0.58036714  0.13945494
   0.67148180  0.59980680  0.61565080
   0.66373334  0.83373138  0.12240000
   0.66359859  0.82538407  0.61495740
   0.92589285  0.09328818  0.14699857
   0.91966669  0.07863139  0.63863801
   0.91550949  0.33011751  0.15457099
   0.91487809  0.32023140  0.63792038
   0.91272726  0.57434345  0.12531936
   0.91557517  0.57624206  0.61753436
   0.91401329  0.84208834  0.12727739
   0.91901054  0.83403366  0.64028779
   0.09147391  0.18097016  0.38069363
   0.09198222  0.16664206  0.86334605
   0.06396274  0.42260709  0.38163986
   0.09389754  0.42470878  0.86736343
   0.08542370  0.66298726  0.37470884
   0.08307962  0.66079753  0.84997424
   0.07257129  0.91465325  0.36123628
   0.07829715  0.90645270  0.87668569
   0.32391583  0.18197629  0.37027080
   0.33756422  0.17294284  0.87131755
   0.32703523  0.41100255  0.34678458
   0.32299852  0.41003690  0.85939593
   0.32119906  0.66350511  0.37457162
   0.35255496  0.68317123  0.86526419
   0.33171211  0.92011529  0.36807772
   0.31980233  0.92550648  0.86227810
   0.57230309  0.16457950  0.39122966
   0.57761786  0.15943429  0.87592718
   0.56541298  0.40853199  0.39057064
   0.59105618  0.43035826  0.85984365
   0.57608937  0.66760212  0.35246850
   0.57250431  0.68005065  0.85439788
   0.58434338  0.90813142  0.35850936
   0.60264940  0.93342375  0.84431869
   0.81012564  0.14747443  0.38474883
   0.86325547  0.18431176  0.87926116
   0.82928581  0.42769196  0.35900015
   0.81952663  0.41176732  0.85370909
   0.83442299  0.67013117  0.35140087
   0.82740407  0.65637819  0.85263633
   0.83764901  0.92078134  0.36591883
   0.83623159  0.91992294  0.85584328
   0.15846216  0.05987842  0.02563549
   0.12694713  0.05959433  0.54204500
   0.19545188  0.37543708  0.03476422
   0.16040974  0.36277738  0.53664743
   0.17593473  0.61441931  0.03306446
   0.20441099  0.62697895  0.54519459
   0.14578497  0.84844934  0.04188081
   0.21123452  0.82068874  0.53579946
   0.47878645  0.12573266  0.06927325
   0.42080742  0.11722533  0.54051875
   0.43225311  0.31813505  0.01992215
   0.43612623  0.32023382  0.53063196
   0.38737012  0.58831621  0.04317398
   0.36728559  0.53670651  0.53997342
   0.38507092  0.87029902  0.07229452
   0.38619403  0.83763513  0.52715893
   0.67747878  0.09435262  0.03138490
   0.69348487  0.09530309  0.53198137
   0.65797663  0.34312034  0.04828419
   0.70312826  0.35918229  0.54632488
   0.67754298  0.59073848  0.03217066
   0.66767757  0.59448584  0.50375167
   0.67923366  0.83871704  0.02208502
   0.68755199  0.79714930  0.52875060
   0.90167601  0.06510680  0.04200705
   0.94419974  0.09517663  0.53238900
   0.91505009  0.31088713  0.04672002
   0.94166867  0.34087988  0.53167193
   0.91079102  0.55691007  0.01821868
   0.89073181  0.55484306  0.51334373
   0.89694012  0.82962366  0.01707129
   0.94885391  0.86823777  0.54162954
   0.13585597  0.21867616  0.47598454
   0.09083414  0.15136996  0.96695527
   0.10712900  0.47146387  0.47326312
   0.10635736  0.44847435  0.96655582
   0.06314932  0.67021613  0.47580014
   0.08861958  0.67810192  0.95598841
   0.08059997  0.87784195  0.45362639
   0.03517787  0.88344178  0.96649314
   0.29827048  0.16772763  0.46427174
   0.33066794  0.16363877  0.97471547
   0.36112653  0.40667109  0.45040949
   0.32956760  0.40320422  0.96988345
   0.35232875  0.66849561  0.47784833
   0.35813914  0.70730445  0.97069287
   0.32850027  0.95835688  0.45814817
   0.31214879  0.94578888  0.96533518
   0.58201580  0.16551878  0.49232420
   0.60805296  0.17865761  0.98475261
   0.60443065  0.45826221  0.48063352
   0.58570222  0.44100695  0.97143670
   0.53918047  0.64978872  0.45337852
   0.59700267  0.69138660  0.95761742
   0.58879880  0.86838965  0.45211844
   0.57606270  0.90577195  0.94387766
   0.84734198  0.18371520  0.47518861
   0.82273808  0.15095048  0.96852796
   0.85178344  0.41408426  0.45633375
   0.83186961  0.38853373  0.95609399
   0.84354758  0.66331975  0.44949636
   0.83600661  0.64757866  0.95432360
   0.84018944  0.93511982  0.47241733
   0.83918727  0.93426866  0.96400630
Direct configuration=   200
   0.00102009  0.01092117  0.25807631
   0.00910099  0.00333114  0.74422436
   0.99339672  0.24878063  0.26042286
   0.00599053  0.25719044  0.76436140
   0.99430539  0.49452201  0.24471926
   0.00310820  0.48689923  0.75466994
   0.97968113  0.73665175  0.21295744
   0.99442956  0.74671271  0.74397679
   0.25286804  0.00961769  0.26818530
   0.25019521  0.00003142  0.73898921
   0.23977087  0.25782326  0.25586841
   0.25231514  0.25781978  0.74631388
   0.23946515  0.49036695  0.25863146
   0.27011455  0.51115828  0.76770488
   0.23694360  0.73179695  0.26280178
   0.25088278  0.75833314  0.75190466
   0.50649552  0.00820924  0.26249935
   0.50656996  0.99221086  0.73472813
   0.48704175  0.24540373  0.25879494
   0.50421884  0.25043453  0.78863367
   0.49119748  0.49908400  0.23609203
   0.49468042  0.49695400  0.73273903
   0.48297274  0.73971883  0.23836552
   0.49392546  0.74743963  0.72972230
   0.75496887  0.00558561  0.23926988
   0.76533611  0.00332591  0.74257696
   0.76940346  0.26352397  0.27300085
   0.73759214  0.24710537  0.74428071
   0.74054694  0.49169288  0.25930296
   0.75507143  0.50704881  0.74841757
   0.75903024  0.75509183  0.26728045
   0.74582403  0.75497903  0.73905798
   0.16331196  0.09853102  0.15039293
   0.17067798  0.07587477  0.60478282
   0.17969989  0.33406256  0.12575704
   0.15275140  0.30450961  0.62620213
   0.15136338  0.55974703  0.14243981
   0.16913989  0.57597308  0.64208432
   0.15880628  0.81368385  0.12712737
   0.16358986  0.83095778  0.61082128
   0.41875947  0.07196885  0.15585742
   0.41926114  0.07928739  0.63529215
   0.43096338  0.34267156  0.10624707
   0.41364157  0.33051788  0.63222615
   0.41146994  0.59094982  0.12139979
   0.40187304  0.55977786  0.60936961
   0.38661430  0.83339234  0.13726976
   0.40905141  0.83854494  0.62274827
   0.66557402  0.07600507  0.14843686
   0.67536908  0.08120148  0.62827685
   0.65605069  0.31106854  0.13982203
   0.65302985  0.32349424  0.63670596
   0.65958878  0.58197654  0.12545814
   0.69325271  0.58717806  0.60867799
   0.69675869  0.84697228  0.12445560
   0.65641232  0.82723850  0.62291954
   0.91568548  0.08276050  0.13801174
   0.92856243  0.07800819  0.62351202
   0.92318734  0.32986442  0.12879477
   0.92159589  0.32552359  0.62994211
   0.91588531  0.57533392  0.11131422
   0.91876233  0.58248417  0.62190354
   0.91585284  0.84462129  0.13285454
   0.92455996  0.84012887  0.62452153
   0.06786273  0.17075428  0.36763920
   0.09972775  0.16231146  0.87968225
   0.06805510  0.40753489  0.38226739
   0.10543535  0.43916775  0.87823401
   0.06956635  0.65170685  0.36344527
   0.09375131  0.67325059  0.86724298
   0.06993038  0.91583800  0.36369739
   0.09122447  0.92104111  0.88102474
   0.32847757  0.16263491  0.36954489
   0.32662332  0.16609943  0.87046405
   0.32574060  0.41202438  0.35742457
   0.35371350  0.43275342  0.85211319
   0.32883531  0.65902255  0.37259528
   0.34453241  0.67546165  0.86468645
   0.33617504  0.92083517  0.38601126
   0.34720075  0.92863254  0.88326717
   0.58771768  0.17986396  0.38800624
   0.59538660  0.17619734  0.89297542
   0.55950369  0.42183223  0.35940959
   0.58383595  0.43173229  0.85875266
   0.58554980  0.68053124  0.37131558
   0.59982308  0.67029610  0.87518899
   0.57329939  0.90444443  0.35658300
   0.59666249  0.92640959  0.86240312
   0.82814997  0.16118325  0.36568272
   0.84161060  0.17681712  0.88236418
   0.83084919  0.42165169  0.37675260
   0.84415851  0.41735568  0.86226430
   0.83304262  0.64834027  0.35437368
   0.84263042  0.67100506  0.85824216
   0.83611918  0.92721726  0.37166856
   0.84178872  0.92830594  0.88181949
   0.13203636  0.09715885  0.05928021
   0.13072466  0.03362225  0.52322445
   0.12226711  0.32917002  0.05689166
   0.14021477  0.34822856  0.54084724
   0.18501078  0.57528965  0.04239773
   0.18973977  0.58526791  0.53969127
   0.20777793  0.83917703  0.03648648
   0.16190999  0.82228377  0.50220318
   0.45265794  0.10715511  0.05902787
   0.44665996  0.10194521  0.54191567
   0.39096569  0.29159471  0.02016350
   0.41623901  0.31008817  0.52501514
   0.43351611  0.58207756  0.01182450
   0.39687300  0.54970411  0.50156522
   0.36642505  0.84488864  0.03460216
   0.41441119  0.85081832  0.49835191
   0.62594694  0.05978982  0.05237989
   0.67862181  0.09539899  0.52137514
   0.63760580  0.34131860  0.05175725
   0.57326792  0.29068686  0.58177477
   0.67421113  0.58809044  0.02034637
   0.68402050  0.62529469  0.51849047
   0.64387936  0.81326843  0.02634328
   0.63166704  0.83074652  0.51711172
   0.93760856  0.07168535  0.03542421
   0.96148366  0.09715451  0.52226010
   0.89062304  0.29307751  0.03288766
   0.93352866  0.31990538  0.52517429
   0.96997229  0.58679421  0.02644713
   0.93024411  0.58541040  0.51118839
   0.88289330  0.81036441  0.03048306
   0.92508170  0.85784415  0.51721841
   0.09299591  0.20242831  0.46717367
   0.07799632  0.19743329  0.95802096
   0.08753102  0.44443400  0.48586153
   0.08757402  0.46663114  0.99217336
   0.07960715  0.66390089  0.46768538
   0.09446267  0.70193357  0.96801959
   0.09559391  0.90241598  0.45799939
   0.05584824  0.89111966  0.98554903
   0.31299056  0.16490183  0.49364146
   0.28433718  0.12430587  0.96109824
   0.31232848  0.37014842  0.46514014
   0.36502509  0.43470796  0.95966063
   0.33461102  0.68914228  0.46589678
   0.38669202  0.71095978  0.95971255
   0.34560288  0.95204678  0.49229151
   0.37889458  0.97606011  0.97376461
   0.62323760  0.17749756  0.48444923
   0.62582335  0.19812973  0.99066707
   0.56545283  0.43743370  0.46135218
   0.55489134  0.43685012  0.95309365
   0.54651865  0.63690394  0.46152490
   0.56291700  0.65005483  0.97645717
   0.60201444  0.93060138  0.45702634
   0.57603314  0.91311276  0.97064740
   0.82908952  0.14264030  0.47256418
   0.82026328  0.15387636  0.98418752
   0.79804586  0.42713466  0.47106828
   0.83042844  0.44502051  0.95401458
   0.83961743  0.65218304  0.47215305
   0.85779335  0.65938435  0.96134238
   0.84249282  0.94025629  0.47311015
   0.80238783  0.90871454  0.97982188
Direct configuration=   250
   0.98912394  0.99481624  0.25610254
   0.00232036  0.99141639  0.73583262
   0.99166640  0.24481977  0.25963796
   0.98185829  0.24601527  0.77551044
   0.98400471  0.48820195  0.24411606
   0.01703367  0.52006819  0.75066512
   0.99243325  0.74163321  0.21637468
   0.00794711  0.75916380  0.75034481
   0.23134207  0.98592581  0.27100451
   0.26817663  0.01446199  0.72492303
   0.24646306  0.24918368  0.27499310
   0.23965611  0.24878561  0.73539265
   0.24408778  0.48441992  0.25142844
   0.24877028  0.49995289  0.77202049
   0.24796793  0.75623746  0.26791725
   0.23678894  0.75028928  0.73242096
   0.48637318  0.00607137  0.24073499
   0.50544784  0.99378385  0.74382653
   0.49729431  0.24851041  0.24778811
   0.49314748  0.24094032  0.80969113
   0.49345402  0.51161774  0.22806948
   0.50867528  0.49074840  0.72683860
   0.48307726  0.75220478  0.24350223
   0.49961958  0.74986565  0.74911156
   0.75382945  0.99627097  0.21293557
   0.76052738  0.00492996  0.75480906
   0.75095885  0.25364788  0.25245182
   0.74278377  0.25278568  0.75159699
   0.73724827  0.47405223  0.26338204
   0.75661424  0.51576495  0.75895942
   0.74875298  0.74925069  0.26935001
   0.75482248  0.75618555  0.74734604
   0.16518907  0.09409316  0.14263039
   0.16600261  0.09592653  0.60273765
   0.17831020  0.34274743  0.10939179
   0.15198039  0.31766091  0.62489568
   0.17167002  0.57565902  0.14733130
   0.17007026  0.59033126  0.63540657
   0.15773502  0.82053721  0.12617490
   0.17616499  0.84756982  0.64680478
   0.40040691  0.09896549  0.12115397
   0.44180369  0.09205691  0.64756064
   0.42491164  0.34589434  0.11346360
   0.41052885  0.31158085  0.64084492
   0.40329613  0.58732206  0.11879542
   0.41218369  0.57105731  0.62452235
   0.41243403  0.84257757  0.14453371
   0.41780061  0.82290188  0.62859065
   0.65109718  0.08443592  0.13586454
   0.66951611  0.07927547  0.62294358
   0.66040944  0.30949189  0.12466369
   0.65870510  0.33872924  0.63861786
   0.66212473  0.59799266  0.12699853
   0.67346128  0.57966816  0.62347063
   0.69549230  0.83426977  0.13192769
   0.66137825  0.83790376  0.64118288
   0.92061302  0.08904641  0.11098425
   0.91760553  0.08060807  0.63952355
   0.91600104  0.33691837  0.12058292
   0.91583860  0.33402195  0.64864004
   0.90634642  0.56775612  0.10327022
   0.92917807  0.58527239  0.65603405
   0.92091523  0.83132681  0.13547155
   0.91426957  0.83700765  0.62286430
   0.06713355  0.15710629  0.38076989
   0.09757135  0.17658381  0.88375182
   0.09277958  0.40116365  0.36881213
   0.09274709  0.40723715  0.88493725
   0.05854925  0.65458666  0.35078189
   0.08853767  0.68298946  0.87801208
   0.08597348  0.90717446  0.37239271
   0.10586436  0.93351177  0.83185748
   0.33501554  0.16225121  0.38200688
   0.31900739  0.15697319  0.86359232
   0.34086120  0.42939243  0.39214589
   0.35648654  0.43350115  0.88473977
   0.32943412  0.65108268  0.35881468
   0.33906008  0.68015339  0.86142422
   0.32863835  0.91171812  0.39204888
   0.36544201  0.91482197  0.86623768
   0.60374284  0.18340147  0.36151750
   0.60046052  0.18096511  0.88479756
   0.58271969  0.42358976  0.33131503
   0.58537348  0.41459033  0.86618059
   0.58643573  0.66796929  0.37203057
   0.60120554  0.65184674  0.84363681
   0.57327775  0.90571042  0.37347390
   0.57222122  0.89647809  0.87022356
   0.84270642  0.18198983  0.38109266
   0.80992281  0.16037947  0.84667241
   0.83053122  0.40916457  0.38592228
   0.85433421  0.41714908  0.86937942
   0.83200265  0.65853108  0.36451450
   0.84477337  0.68456510  0.86979138
   0.82577817  0.91548369  0.37832368
   0.84685901  0.92946527  0.85866108
   0.12274396  0.08838574  0.03259291
   0.12909335  0.01892278  0.51380196
   0.22154150  0.39261485  0.01129759
   0.17754281  0.34288597  0.52139998
   0.14849373  0.57406739  0.04347509
   0.17278927  0.56677483  0.53531010
   0.20740380  0.88046161  0.05409965
   0.17667476  0.84519418  0.54385910
   0.40181670  0.07545073  0.01846020
   0.45013446  0.13864783  0.54677658
   0.37965555  0.28279210  0.04058661
   0.39347020  0.31553757  0.53537522
   0.40371013  0.53561090  0.02984691
   0.47365575  0.63372734  0.53682997
   0.42394262  0.84934284  0.03757606
   0.39985277  0.84810893  0.54724590
   0.65390624  0.10651371  0.02781620
   0.67998866  0.07872859  0.51735189
   0.70359794  0.36332619  0.03937877
   0.70098773  0.40107190  0.55865976
   0.72005659  0.60753822  0.04952645
   0.71931145  0.58248922  0.53939384
   0.66508311  0.79113033  0.02761709
   0.63565570  0.83049625  0.53552461
   0.93345137  0.09502309  0.00756127
   0.95259675  0.10942843  0.54314327
   0.89151041  0.35058482  0.01700985
   0.88544748  0.28067438  0.56188957
   0.95461055  0.61042116  0.01424911
   0.92162317  0.55484839  0.55399127
   0.91498327  0.87981119  0.05980612
   0.86280626  0.83144239  0.53715449
   0.08614951  0.17142238  0.49336478
   0.12860240  0.24009655  0.97598378
   0.04187544  0.37669401  0.45131853
   0.05164796  0.37068233  0.97520772
   0.07597227  0.64241342  0.45341870
   0.12948366  0.72337715  0.97465335
   0.02423596  0.85409038  0.45434176
   0.14466861  0.95356136  0.93636790
   0.30219893  0.14570533  0.47403527
   0.28260466  0.12953354  0.97261003
   0.38220359  0.49605334  0.47380307
   0.34382151  0.38425144  0.96894928